ITEM: TIMESTEP
100000
ITEM: NUMBER OF ATOMS
400
ITEM: BOX BOUNDS pp pp pp
0.0000000000000000e+00 2.3904572186687872e+01
0.0000000000000000e+00 2.3904572186687872e+01
-5.9761430466719678e-01 5.9761430466719678e-01
ITEM: ATOMS id type xs ys zs
12 1 0.0517187 0.00395101 0.5
108 1 0.12999 0.0205389 0.5
261 1 0.183886 0.0200097 0.5
193 1 0.237026 0.0112183 0.5
358 1 0.303418 0.0170828 0.5
44 1 0.0865773 0.0288758 0.5
43 1 0.272039 0.0509577 0.5
288 1 0.0370627 0.0575065 0.5
326 1 0.095519 0.0697843 0.5
216 1 0.247068 0.0831298 0.5
25 1 0.31339 0.0769336 0.5
91 1 0.0678844 0.107118 0.5
195 1 0.150579 0.103111 0.5
234 1 0.192994 0.103574 0.5
107 1 0.106948 0.126707 0.5
246 1 0.314289 0.115503 0.5
50 1 0.0437692 0.151876 0.5
46 1 0.145615 0.152222 0.5
322 1 0.19355 0.143003 0.5
367 1 0.237435 0.16429 0.5
238 1 0.280409 0.15873 0.5
362 1 0.0240112 0.188052 0.5
386 1 0.113106 0.184654 0.5
379 1 0.176318 0.181835 0.5
232 1 0.331541 0.174551 0.5
213 1 0.0710636 0.203085 0.5
164 1 0.143121 0.214064 0.5
225 1 0.222513 0.202513 0.5
222 1 0.267295 0.200637 0.5
185 1 0.0402369 0.239733 0.5
20 1 0.100844 0.244041 0.5
345 1 0.189041 0.230771 0.5
48 1 0.260303 0.2428 0.5
257 1 0.0142048 0.270591 0.5
140 1 0.144326 0.263832 0.5
221 1 0.221769 0.266064 0.5
37 1 0.0694088 0.289049 0.5
33 1 0.186305 0.285303 0.5
179 1 0.277959 0.290352 0.5
153 1 0.00484034 0.319292 0.5
228 1 0.133397 0.307472 0.5
150 1 0.167832 0.3286 0.5
197 1 0.235495 0.326116 0.5
369 1 0.320319 0.310297 0.5
156 1 0.0553797 0.339121 0.5
119 1 0.120803 0.352623 0.5
121 1 0.263887 0.358484 0.5
312 1 0.00921132 0.379175 0.5
295 1 0.0803689 0.37131 0.5
24 1 0.163562 0.368861 0.5
264 1 0.206126 0.369141 0.5
145 1 0.32648 0.366285 0.5
231 1 0.147729 0.405263 0.5
125 1 0.230664 0.403435 0.5
383 1 0.287995 0.409618 0.5
241 1 0.00966445 0.433036 0.5
226 1 0.0505328 0.418565 0.5
270 1 0.193492 0.424099 0.5
175 1 0.263424 0.441748 0.5
323 1 0.0662868 0.457659 0.5
390 1 0.12632 0.45635 0.5
19 1 0.221486 0.454759 0.5
341 1 0.307175 0.451423 0.5
239 1 0.00639678 0.475413 0.5
95 1 0.0451655 0.496892 0.5
375 1 0.090357 0.495817 0.5
139 1 0.160794 0.474674 0.5
202 1 0.20191 0.491231 0.5
309 1 0.26628 0.482923 0.5
69 1 0.331735 0.487691 0.5
327 1 0.14229 0.520801 0.5
93 1 0.231195 0.519699 0.5
307 1 0.325611 0.527084 0.5
68 1 0.101976 0.543731 0.5
30 1 0.187025 0.52918 0.5
40 1 0.280087 0.53623 0.5
106 1 0.0720419 0.575015 0.5
158 1 0.138094 0.564963 0.5
144 1 0.189182 0.570866 0.5
355 1 0.228945 0.5591 0.5
258 1 0.0289954 0.583927 0.5
8 1 0.26115 0.607646 0.5
35 1 0.0372533 0.630646 0.5
70 1 0.158954 0.637087 0.5
99 1 0.219951 0.611404 0.5
393 1 0.312615 0.634261 0.5
363 1 0.00270014 0.653192 0.5
305 1 0.0829911 0.645986 0.5
227 1 0.121265 0.662993 0.5
275 1 0.264376 0.658478 0.5
166 1 0.0182013 0.689629 0.5
169 1 0.0575907 0.678744 0.5
28 1 0.219029 0.673707 0.5
297 1 0.325983 0.674919 0.5
71 1 0.0760763 0.716563 0.5
181 1 0.124586 0.708604 0.5
205 1 0.181005 0.695862 0.5
120 1 0.298139 0.705506 0.5
308 1 0.0296343 0.739007 0.5
240 1 0.188491 0.735715 0.5
77 1 0.23024 0.725995 0.5
123 1 0.325376 0.746611 0.5
354 1 0.0662693 0.755961 0.5
348 1 0.109015 0.751157 0.5
242 1 0.152572 0.758793 0.5
215 1 0.256655 0.754419 0.5
196 1 0.0337023 0.781469 0.5
171 1 0.124296 0.789268 0.5
6 1 0.179821 0.796818 0.5
289 1 0.218817 0.778897 0.5
286 1 0.27396 0.789331 0.5
206 1 0.026957 0.825735 0.5
333 1 0.129008 0.829911 0.5
374 1 0.219104 0.832434 0.5
302 1 0.321689 0.809784 0.5
62 1 0.0900085 0.843971 0.5
319 1 0.166743 0.854766 0.5
47 1 0.264601 0.835796 0.5
299 1 0.304126 0.85621 0.5
347 1 0.0453982 0.863709 0.5
223 1 0.22055 0.880824 0.5
316 1 0.0347962 0.913618 0.5
210 1 0.0763686 0.895841 0.5
163 1 0.119276 0.894433 0.5
280 1 0.180415 0.899289 0.5
59 1 0.27511 0.897642 0.5
113 1 0.232237 0.936686 0.5
63 1 0.280604 0.94007 0.5
313 1 0.0512523 0.962515 0.5
260 1 0.112684 0.967414 0.5
32 1 0.150192 0.948225 0.5
340 1 0.320546 0.946932 0.5
178 1 0.00242749 0.983398 0.5
247 1 0.192901 0.97797 0.5
147 1 0.457061 0.00945127 0.5
272 1 0.510658 0.0268168 0.5
200 1 0.595461 0.0270025 0.5
219 1 0.352909 0.0367988 0.5
273 1 0.433169 0.0499779 0.5
60 1 0.475271 0.0484886 0.5
262 1 0.545466 0.0439412 0.5
366 1 0.386958 0.0584813 0.5
204 1 0.514945 0.0705179 0.5
250 1 0.582116 0.0651904 0.5
263 1 0.372565 0.0966571 0.5
85 1 0.416324 0.0965929 0.5
9 1 0.457357 0.0863613 0.5
339 1 0.56845 0.104922 0.5
159 1 0.618515 0.0842753 0.5
72 1 0.488291 0.116319 0.5
207 1 0.52886 0.116442 0.5
26 1 0.62639 0.129835 0.5
143 1 0.362748 0.148502 0.5
16 1 0.402382 0.163328 0.5
57 1 0.446711 0.149683 0.5
161 1 0.489449 0.162051 0.5
90 1 0.540677 0.170311 0.5
1 1 0.591902 0.188431 0.5
31 1 0.641583 0.183332 0.5
81 1 0.377566 0.194932 0.5
201 1 0.437651 0.196382 0.5
4 1 0.493584 0.201074 0.5
387 1 0.335268 0.231273 0.5
110 1 0.440393 0.238515 0.5
92 1 0.481848 0.239906 0.5
296 1 0.528246 0.231248 0.5
310 1 0.583021 0.227259 0.5
45 1 0.623524 0.24105 0.5
165 1 0.383149 0.255317 0.5
318 1 0.351325 0.281497 0.5
252 1 0.414946 0.297706 0.5
67 1 0.457515 0.280798 0.5
292 1 0.530002 0.301948 0.5
381 1 0.565537 0.281764 0.5
281 1 0.632063 0.282397 0.5
51 1 0.375735 0.327611 0.5
2 1 0.482776 0.314469 0.5
230 1 0.591735 0.324618 0.5
245 1 0.632176 0.326763 0.5
115 1 0.417504 0.345122 0.5
244 1 0.515751 0.34359 0.5
149 1 0.489072 0.380333 0.5
256 1 0.549231 0.371746 0.5
36 1 0.605448 0.379026 0.5
283 1 0.408063 0.38907 0.5
117 1 0.649788 0.391699 0.5
184 1 0.35618 0.429456 0.5
251 1 0.441221 0.430415 0.5
328 1 0.512823 0.418495 0.5
103 1 0.633517 0.436585 0.5
157 1 0.375293 0.471835 0.5
334 1 0.481433 0.467572 0.5
174 1 0.583019 0.448584 0.5
392 1 0.427194 0.47452 0.5
152 1 0.543147 0.473278 0.5
370 1 0.580976 0.493522 0.5
214 1 0.617817 0.475838 0.5
396 1 0.453067 0.5118 0.5
266 1 0.507242 0.505693 0.5
168 1 0.55091 0.519475 0.5
397 1 0.618439 0.524221 0.5
384 1 0.367808 0.533208 0.5
75 1 0.418631 0.54645 0.5
151 1 0.51919 0.551823 0.5
224 1 0.467148 0.561878 0.5
56 1 0.609879 0.579306 0.5
330 1 0.341595 0.586724 0.5
398 1 0.410061 0.587772 0.5
65 1 0.485028 0.608305 0.5
135 1 0.566011 0.590035 0.5
300 1 0.384195 0.622246 0.5
89 1 0.439145 0.62927 0.5
170 1 0.659747 0.621988 0.5
116 1 0.404651 0.662453 0.5
5 1 0.481839 0.657724 0.5
365 1 0.545557 0.651245 0.5
290 1 0.608836 0.660039 0.5
98 1 0.442748 0.681521 0.5
284 1 0.542663 0.690312 0.5
111 1 0.364568 0.696824 0.5
338 1 0.414423 0.716396 0.5
368 1 0.498778 0.695032 0.5
373 1 0.588763 0.695012 0.5
321 1 0.366769 0.744519 0.5
211 1 0.457331 0.723596 0.5
352 1 0.500357 0.735727 0.5
84 1 0.620761 0.725837 0.5
317 1 0.450602 0.774171 0.5
271 1 0.546767 0.750713 0.5
218 1 0.587704 0.768887 0.5
331 1 0.356711 0.786198 0.5
359 1 0.40754 0.795089 0.5
141 1 0.513455 0.781567 0.5
267 1 0.62512 0.789128 0.5
350 1 0.38865 0.831426 0.5
53 1 0.460394 0.822507 0.5
148 1 0.527138 0.820143 0.5
336 1 0.57569 0.823697 0.5
186 1 0.628495 0.831135 0.5
315 1 0.348343 0.844699 0.5
259 1 0.493912 0.858728 0.5
122 1 0.337574 0.884302 0.5
80 1 0.38704 0.87796 0.5
371 1 0.452873 0.871927 0.5
86 1 0.567018 0.865046 0.5
94 1 0.534113 0.889914 0.5
376 1 0.637812 0.898122 0.5
38 1 0.369681 0.918264 0.5
287 1 0.440499 0.935364 0.5
109 1 0.518233 0.927701 0.5
132 1 0.560287 0.92469 0.5
101 1 0.598084 0.933385 0.5
13 1 0.652032 0.941741 0.5
364 1 0.37914 0.961831 0.5
17 1 0.492619 0.962604 0.5
220 1 0.345802 0.993814 0.5
138 1 0.422882 0.980187 0.5
265 1 0.53544 0.989421 0.5
54 1 0.587528 0.974105 0.5
39 1 0.628376 0.975502 0.5
127 1 0.675473 0.0113135 0.5
131 1 0.731657 0.0220228 0.5
217 1 0.784447 0.00463612 0.5
21 1 0.87681 0.00386887 0.5
182 1 0.914509 0.0189138 0.5
102 1 0.999378 0.0273455 0.5
73 1 0.781775 0.0479068 0.5
342 1 0.81833 0.0282268 0.5
3 1 0.870469 0.0494159 0.5
335 1 0.959657 0.0283509 0.5
269 1 0.687844 0.0569206 0.5
212 1 0.740634 0.0653315 0.5
314 1 0.947309 0.0797012 0.5
203 1 0.999288 0.0761276 0.5
41 1 0.714487 0.103008 0.5
332 1 0.756926 0.109323 0.5
229 1 0.79358 0.0857332 0.5
124 1 0.848602 0.0943025 0.5
104 1 0.898592 0.0969488 0.5
18 1 0.67096 0.115641 0.5
88 1 0.832035 0.131176 0.5
320 1 0.904116 0.138493 0.5
192 1 0.976135 0.111899 0.5
82 1 0.691983 0.156518 0.5
173 1 0.784741 0.145022 0.5
177 1 0.99728 0.154519 0.5
137 1 0.753317 0.182785 0.5
198 1 0.935556 0.167744 0.5
353 1 0.982856 0.192798 0.5
306 1 0.684778 0.204323 0.5
167 1 0.800217 0.203977 0.5
142 1 0.871763 0.20345 0.5
42 1 0.91282 0.200398 0.5
276 1 0.756301 0.230157 0.5
176 1 0.793732 0.245906 0.5
344 1 0.837762 0.239857 0.5
293 1 0.8783 0.248435 0.5
343 1 0.954993 0.224179 0.5
79 1 0.995021 0.229269 0.5
183 1 0.689828 0.253605 0.5
136 1 0.921923 0.259986 0.5
389 1 0.970607 0.266251 0.5
235 1 0.688717 0.298617 0.5
399 1 0.747896 0.285284 0.5
346 1 0.783836 0.301174 0.5
324 1 0.824484 0.281185 0.5
285 1 0.899452 0.293137 0.5
236 1 0.858893 0.318521 0.5
380 1 0.93691 0.324013 0.5
351 1 0.678109 0.342281 0.5
15 1 0.718354 0.342428 0.5
191 1 0.759807 0.341178 0.5
112 1 0.850651 0.360393 0.5
126 1 0.976568 0.35564 0.5
97 1 0.704986 0.380398 0.5
301 1 0.747507 0.384613 0.5
279 1 0.802394 0.37878 0.5
382 1 0.772935 0.414773 0.5
23 1 0.852591 0.409277 0.5
11 1 0.912935 0.391014 0.5
133 1 0.954797 0.390522 0.5
349 1 0.72617 0.424755 0.5
249 1 0.815746 0.430867 0.5
395 1 0.90023 0.436638 0.5
146 1 0.961962 0.437176 0.5
274 1 0.677033 0.452719 0.5
282 1 0.774588 0.455544 0.5
208 1 0.722529 0.483222 0.5
7 1 0.771583 0.497177 0.5
278 1 0.814011 0.474023 0.5
22 1 0.854908 0.491213 0.5
189 1 0.895049 0.477901 0.5
61 1 0.960509 0.47818 0.5
66 1 0.680574 0.502495 0.5
400 1 0.949045 0.523169 0.5
298 1 0.99977 0.52449 0.5
294 1 0.724755 0.528358 0.5
49 1 0.766254 0.546282 0.5
391 1 0.815569 0.537377 0.5
209 1 0.859816 0.531666 0.5
243 1 0.726278 0.571534 0.5
27 1 0.793957 0.578119 0.5
34 1 0.837796 0.572277 0.5
361 1 0.90519 0.571413 0.5
337 1 0.948384 0.567007 0.5
172 1 0.98649 0.574667 0.5
378 1 0.687289 0.583483 0.5
187 1 0.760287 0.606569 0.5
10 1 0.962003 0.606701 0.5
180 1 0.82292 0.624335 0.5
52 1 0.861542 0.632184 0.5
55 1 0.90758 0.623749 0.5
394 1 0.687971 0.658014 0.5
155 1 0.734533 0.650815 0.5
268 1 0.784144 0.639099 0.5
329 1 0.94815 0.665896 0.5
303 1 0.812059 0.672429 0.5
114 1 0.853059 0.693638 0.5
388 1 0.698179 0.702852 0.5
76 1 0.750264 0.712322 0.5
385 1 0.795419 0.716934 0.5
128 1 0.890959 0.712793 0.5
87 1 0.932903 0.710402 0.5
74 1 0.667672 0.744295 0.5
277 1 0.724612 0.743189 0.5
105 1 0.821716 0.747337 0.5
154 1 0.862203 0.740336 0.5
96 1 0.769568 0.752808 0.5
311 1 0.897035 0.765367 0.5
29 1 0.942183 0.765199 0.5
190 1 0.989469 0.751018 0.5
14 1 0.673217 0.785524 0.5
325 1 0.718611 0.799644 0.5
160 1 0.773064 0.796486 0.5
83 1 0.866146 0.793367 0.5
58 1 0.927989 0.805374 0.5
233 1 0.990482 0.792519 0.5
248 1 0.807681 0.822421 0.5
188 1 0.674202 0.838146 0.5
199 1 0.743781 0.835177 0.5
100 1 0.778404 0.861082 0.5
254 1 0.861272 0.840066 0.5
372 1 0.903466 0.838104 0.5
118 1 0.959307 0.83858 0.5
253 1 0.996547 0.854149 0.5
130 1 0.674369 0.882355 0.5
134 1 0.718397 0.881095 0.5
194 1 0.928549 0.876151 0.5
357 1 0.77233 0.906511 0.5
304 1 0.831647 0.896838 0.5
64 1 0.902795 0.906193 0.5
356 1 0.692408 0.935298 0.5
78 1 0.810796 0.935235 0.5
237 1 0.884145 0.944261 0.5
377 1 0.967969 0.931479 0.5
291 1 0.772359 0.954818 0.5
255 1 0.715714 0.97884 0.5
162 1 0.847042 0.974108 0.5
129 1 0.910264 0.976571 0.5
360 1 0.958276 0.977379 0.5
