ITEM: TIMESTEP
100000
ITEM: NUMBER OF ATOMS
400
ITEM: BOX BOUNDS pp pp pp
0.0000000000000000e+00 1.9069251784911849e+01
0.0000000000000000e+00 1.9069251784911849e+01
-4.7673129462279618e-01 4.7673129462279618e-01
ITEM: ATOMS id type xs ys zs
5 1 0.089122 0.00138943 0.5
138 1 0.137461 0.0236381 0.5
139 1 0.194991 0.0333047 0.5
140 1 0.239419 0.00794753 0.5
6 1 0.28749 0.0258139 0.5
136 1 0.0475163 0.0369469 0.5
10 1 0.0986895 0.0573057 0.5
12 1 0.24543 0.058343 0.5
17 1 0.0365219 0.0860355 0.5
11 1 0.0829622 0.104073 0.5
19 1 0.161758 0.071726 0.5
13 1 0.208522 0.091885 0.5
27 1 0.310292 0.0844195 0.5
3 1 0.0411017 0.138065 0.5
18 1 0.133129 0.11276 0.5
24 1 0.181448 0.141701 0.5
20 1 0.267039 0.107656 0.5
177 1 0.311707 0.134623 0.5
315 1 0.00405869 0.172766 0.5
23 1 0.0934687 0.15399 0.5
38 1 0.141239 0.173051 0.5
25 1 0.233904 0.150185 0.5
26 1 0.278903 0.173698 0.5
304 1 0.0535368 0.189209 0.5
22 1 0.103448 0.207526 0.5
31 1 0.187273 0.192392 0.5
41 1 0.234695 0.201664 0.5
14 1 0.325753 0.191702 0.5
316 1 0.0209081 0.230108 0.5
36 1 0.0667754 0.242183 0.5
39 1 0.150385 0.225145 0.5
33 1 0.2025 0.2399 0.5
42 1 0.277625 0.226792 0.5
185 1 0.332962 0.244574 0.5
30 1 0.0277527 0.278713 0.5
37 1 0.116298 0.262981 0.5
45 1 0.166345 0.273934 0.5
48 1 0.247389 0.270231 0.5
34 1 0.297968 0.283935 0.5
50 1 0.0779177 0.295394 0.5
52 1 0.128407 0.314993 0.5
32 1 0.208339 0.30051 0.5
55 1 0.261186 0.321237 0.5
29 1 0.0325684 0.332676 0.5
51 1 0.0834965 0.35034 0.5
40 1 0.169812 0.342184 0.5
46 1 0.223565 0.356025 0.5
49 1 0.308121 0.339816 0.5
44 1 0.040179 0.381623 0.5
59 1 0.127871 0.372473 0.5
56 1 0.269091 0.374074 0.5
74 1 0.0907826 0.405768 0.5
47 1 0.142822 0.427038 0.5
53 1 0.183951 0.393129 0.5
60 1 0.24102 0.418843 0.5
211 1 0.322532 0.39355 0.5
81 1 0.0462745 0.432298 0.5
68 1 0.102311 0.459866 0.5
61 1 0.192114 0.444334 0.5
54 1 0.290964 0.433571 0.5
66 1 0.00863401 0.467128 0.5
71 1 0.061694 0.489147 0.5
67 1 0.154766 0.477602 0.5
75 1 0.199985 0.499392 0.5
77 1 0.248025 0.46762 0.5
90 1 0.297733 0.488963 0.5
82 1 0.0197274 0.520283 0.5
87 1 0.109976 0.508575 0.5
76 1 0.157558 0.531722 0.5
98 1 0.256327 0.521559 0.5
83 1 0.067928 0.541792 0.5
232 1 0.119497 0.562506 0.5
240 1 0.20969 0.553073 0.5
84 1 0.312516 0.541208 0.5
72 1 0.0275917 0.575582 0.5
79 1 0.0804135 0.594545 0.5
89 1 0.17101 0.583726 0.5
91 1 0.264023 0.571944 0.5
233 1 0.32171 0.595507 0.5
93 1 0.0360017 0.631125 0.5
80 1 0.130447 0.616922 0.5
88 1 0.18136 0.633886 0.5
96 1 0.228489 0.607933 0.5
104 1 0.280699 0.624307 0.5
78 1 0.0912656 0.646879 0.5
99 1 0.138187 0.666122 0.5
109 1 0.232733 0.657182 0.5
103 1 0.284658 0.674406 0.5
241 1 0.32766 0.648947 0.5
370 1 0.0381248 0.682773 0.5
382 1 0.0867256 0.69708 0.5
86 1 0.184037 0.687697 0.5
102 1 0.233838 0.709903 0.5
113 1 0.0438834 0.733068 0.5
121 1 0.0959073 0.748845 0.5
100 1 0.141495 0.718356 0.5
107 1 0.190285 0.738281 0.5
105 1 0.287919 0.728592 0.5
387 1 0.0032674 0.768606 0.5
114 1 0.0575689 0.782342 0.5
108 1 0.149266 0.7713 0.5
111 1 0.237359 0.759154 0.5
239 1 0.293939 0.782833 0.5
134 1 0.01427 0.819208 0.5
115 1 0.108565 0.802898 0.5
94 1 0.200389 0.796657 0.5
95 1 0.251826 0.813653 0.5
120 1 0.0624119 0.836649 0.5
116 1 0.115153 0.85376 0.5
101 1 0.158052 0.823578 0.5
117 1 0.216748 0.850311 0.5
112 1 0.308261 0.838389 0.5
122 1 0.0240351 0.869977 0.5
131 1 0.0776615 0.891878 0.5
110 1 0.164806 0.873655 0.5
119 1 0.264257 0.866027 0.5
261 1 0.312744 0.890042 0.5
130 1 0.0366673 0.923897 0.5
123 1 0.129062 0.910371 0.5
118 1 0.220964 0.89984 0.5
260 1 0.266833 0.922073 0.5
137 1 0.0825575 0.950056 0.5
124 1 0.173296 0.935313 0.5
125 1 0.220052 0.953116 0.5
267 1 0.318424 0.942109 0.5
129 1 0.0403004 0.980298 0.5
132 1 0.13452 0.966474 0.5
126 1 0.180211 0.987938 0.5
133 1 0.280277 0.974991 0.5
274 1 0.327576 0.993339 0.5
141 1 0.386513 0.0195457 0.5
149 1 0.473477 0.00269028 0.5
143 1 0.526097 0.0192294 0.5
158 1 0.574096 0.0348815 0.5
279 1 0.62104 0.00568864 0.5
7 1 0.339978 0.044179 0.5
155 1 0.392532 0.0704591 0.5
148 1 0.433669 0.0364569 0.5
150 1 0.484134 0.0530413 0.5
160 1 0.627049 0.0589058 0.5
28 1 0.355858 0.104459 0.5
156 1 0.446013 0.0897552 0.5
144 1 0.539332 0.0761783 0.5
152 1 0.591621 0.092122 0.5
35 1 0.404038 0.124965 0.5
162 1 0.456512 0.140927 0.5
157 1 0.49531 0.107838 0.5
165 1 0.552508 0.124368 0.5
294 1 0.63968 0.116398 0.5
21 1 0.359982 0.1571 0.5
178 1 0.420439 0.174467 0.5
164 1 0.508363 0.155523 0.5
293 1 0.55696 0.175387 0.5
154 1 0.597869 0.144415 0.5
161 1 0.648232 0.165039 0.5
176 1 0.377688 0.213197 0.5
163 1 0.471249 0.189842 0.5
172 1 0.515535 0.213496 0.5
159 1 0.60815 0.198495 0.5
169 1 0.426793 0.227638 0.5
166 1 0.564035 0.226061 0.5
167 1 0.653821 0.222553 0.5
192 1 0.381209 0.26225 0.5
193 1 0.429202 0.284383 0.5
170 1 0.478785 0.250803 0.5
186 1 0.531048 0.26407 0.5
171 1 0.610203 0.250592 0.5
179 1 0.656297 0.27449 0.5
183 1 0.348252 0.29848 0.5
180 1 0.483513 0.300652 0.5
200 1 0.534042 0.316303 0.5
174 1 0.57482 0.287877 0.5
182 1 0.618293 0.309946 0.5
184 1 0.391741 0.324205 0.5
191 1 0.444786 0.334035 0.5
207 1 0.493059 0.352466 0.5
201 1 0.579661 0.338064 0.5
189 1 0.66534 0.32549 0.5
190 1 0.35673 0.358674 0.5
198 1 0.40293 0.380214 0.5
70 1 0.454806 0.385529 0.5
194 1 0.541163 0.373626 0.5
181 1 0.62152 0.365013 0.5
69 1 0.367913 0.418063 0.5
204 1 0.502012 0.402916 0.5
205 1 0.544381 0.428246 0.5
202 1 0.587757 0.398162 0.5
195 1 0.632348 0.422943 0.5
62 1 0.33691 0.457022 0.5
225 1 0.391756 0.459963 0.5
197 1 0.433166 0.432787 0.5
199 1 0.487575 0.454461 0.5
323 1 0.587432 0.453905 0.5
218 1 0.447524 0.48452 0.5
206 1 0.541246 0.483904 0.5
217 1 0.633465 0.475023 0.5
97 1 0.354188 0.506067 0.5
63 1 0.404497 0.512913 0.5
214 1 0.498064 0.510284 0.5
213 1 0.546747 0.535665 0.5
196 1 0.587551 0.507399 0.5
223 1 0.641025 0.524284 0.5
226 1 0.361825 0.559998 0.5
212 1 0.4556 0.542613 0.5
215 1 0.502925 0.563233 0.5
208 1 0.59559 0.557084 0.5
220 1 0.408871 0.578076 0.5
219 1 0.458322 0.598443 0.5
216 1 0.551098 0.587718 0.5
222 1 0.64822 0.57356 0.5
227 1 0.369749 0.615099 0.5
228 1 0.421265 0.634044 0.5
221 1 0.509324 0.619636 0.5
236 1 0.556417 0.639715 0.5
230 1 0.599942 0.608813 0.5
238 1 0.647319 0.628216 0.5
235 1 0.376079 0.666017 0.5
229 1 0.466509 0.649501 0.5
244 1 0.513944 0.670162 0.5
237 1 0.605065 0.656808 0.5
359 1 0.663761 0.676184 0.5
234 1 0.335749 0.695842 0.5
243 1 0.422683 0.683688 0.5
251 1 0.473235 0.704604 0.5
252 1 0.563394 0.687898 0.5
245 1 0.623758 0.706787 0.5
249 1 0.377469 0.722056 0.5
250 1 0.433728 0.734878 0.5
259 1 0.522918 0.723382 0.5
365 1 0.57734 0.738796 0.5
246 1 0.336193 0.751399 0.5
242 1 0.394249 0.774198 0.5
263 1 0.48122 0.754732 0.5
371 1 0.53563 0.775001 0.5
273 1 0.62095 0.764562 0.5
247 1 0.33985 0.802661 0.5
256 1 0.441173 0.794885 0.5
257 1 0.49225 0.806668 0.5
266 1 0.581531 0.795797 0.5
383 1 0.632934 0.813034 0.5
248 1 0.391086 0.831926 0.5
264 1 0.442827 0.845515 0.5
258 1 0.54003 0.825983 0.5
146 1 0.593021 0.84575 0.5
253 1 0.354226 0.862655 0.5
254 1 0.403322 0.885151 0.5
270 1 0.495546 0.86152 0.5
271 1 0.547046 0.876499 0.5
272 1 0.642387 0.865873 0.5
262 1 0.359595 0.910998 0.5
255 1 0.454959 0.895772 0.5
269 1 0.506171 0.919363 0.5
145 1 0.59735 0.898662 0.5
147 1 0.645278 0.918437 0.5
275 1 0.3719 0.961866 0.5
268 1 0.414934 0.936579 0.5
276 1 0.466608 0.950024 0.5
278 1 0.552939 0.930962 0.5
265 1 0.610827 0.954643 0.5
142 1 0.425046 0.985497 0.5
277 1 0.514422 0.970318 0.5
151 1 0.56827 0.983871 0.5
153 1 0.66028 0.974441 0.5
395 1 0.669146 0.0244667 0.5
289 1 0.759872 0.0108093 0.5
285 1 0.805155 0.0288377 0.5
291 1 0.903173 0.0163112 0.5
4 1 0.997315 0.00844159 0.5
301 1 0.714362 0.0439219 0.5
307 1 0.762347 0.0612388 0.5
302 1 0.854632 0.0466595 0.5
296 1 0.90554 0.069912 0.5
9 1 0.948447 0.0401585 0.5
2 1 0.994084 0.0602974 0.5
281 1 0.676686 0.0802168 0.5
299 1 0.726687 0.0990942 0.5
288 1 0.809 0.0781626 0.5
314 1 0.858881 0.0994508 0.5
298 1 0.952718 0.0913952 0.5
287 1 0.68854 0.133658 0.5
311 1 0.774769 0.11293 0.5
300 1 0.818082 0.138488 0.5
308 1 0.9055 0.131269 0.5
16 1 0.953514 0.142329 0.5
309 1 0.996546 0.116537 0.5
295 1 0.737918 0.149416 0.5
313 1 0.785315 0.174901 0.5
319 1 0.861641 0.158934 0.5
168 1 0.696916 0.18391 0.5
173 1 0.748224 0.210287 0.5
306 1 0.831266 0.199877 0.5
320 1 0.92539 0.189058 0.5
297 1 0.969767 0.211234 0.5
305 1 0.70246 0.23665 0.5
175 1 0.791537 0.234034 0.5
325 1 0.881575 0.217363 0.5
310 1 0.928766 0.239071 0.5
312 1 0.749764 0.264131 0.5
321 1 0.839404 0.252007 0.5
303 1 0.890077 0.272041 0.5
333 1 0.975984 0.261306 0.5
187 1 0.705756 0.288528 0.5
317 1 0.747801 0.318386 0.5
336 1 0.791399 0.287685 0.5
318 1 0.840808 0.304036 0.5
327 1 0.937991 0.293143 0.5
43 1 0.987732 0.312998 0.5
329 1 0.711249 0.352338 0.5
330 1 0.802467 0.336943 0.5
334 1 0.855014 0.354924 0.5
328 1 0.899973 0.322951 0.5
331 1 0.945205 0.344022 0.5
188 1 0.669672 0.382252 0.5
324 1 0.76446 0.375945 0.5
337 1 0.816595 0.388307 0.5
326 1 0.899749 0.375288 0.5
322 1 0.992633 0.364106 0.5
335 1 0.723789 0.402821 0.5
341 1 0.775208 0.425052 0.5
332 1 0.86125 0.410029 0.5
57 1 0.950799 0.393691 0.5
58 1 0.993597 0.418048 0.5
342 1 0.68638 0.435678 0.5
343 1 0.733476 0.456478 0.5
338 1 0.819819 0.445953 0.5
339 1 0.868679 0.459397 0.5
64 1 0.909513 0.433062 0.5
65 1 0.957035 0.453619 0.5
209 1 0.682099 0.484878 0.5
355 1 0.777904 0.477722 0.5
344 1 0.827537 0.496765 0.5
340 1 0.909477 0.485283 0.5
203 1 0.693243 0.535571 0.5
210 1 0.735208 0.508116 0.5
348 1 0.78026 0.531318 0.5
351 1 0.871743 0.526113 0.5
346 1 0.958162 0.507434 0.5
224 1 0.738797 0.560407 0.5
349 1 0.827626 0.549906 0.5
73 1 0.92018 0.536804 0.5
85 1 0.979726 0.551863 0.5
231 1 0.695574 0.58751 0.5
360 1 0.787214 0.581292 0.5
350 1 0.84185 0.602511 0.5
345 1 0.882987 0.572679 0.5
352 1 0.937997 0.585072 0.5
361 1 0.702009 0.641372 0.5
347 1 0.744815 0.609697 0.5
354 1 0.796996 0.6289 0.5
357 1 0.898088 0.621442 0.5
358 1 0.944072 0.638204 0.5
92 1 0.988583 0.608631 0.5
353 1 0.758763 0.660737 0.5
362 1 0.857257 0.650472 0.5
364 1 0.90072 0.673872 0.5
106 1 0.991048 0.664299 0.5
372 1 0.709743 0.69302 0.5
373 1 0.765946 0.71411 0.5
363 1 0.806514 0.687007 0.5
356 1 0.853665 0.702027 0.5
374 1 0.948312 0.698842 0.5
366 1 0.670751 0.726808 0.5
367 1 0.722918 0.745204 0.5
380 1 0.811585 0.73861 0.5
375 1 0.904895 0.727193 0.5
381 1 0.952704 0.749725 0.5
376 1 0.99725 0.714704 0.5
377 1 0.67499 0.782768 0.5
384 1 0.769672 0.768407 0.5
386 1 0.857531 0.758889 0.5
392 1 0.912254 0.778751 0.5
368 1 0.724016 0.795134 0.5
379 1 0.774266 0.821396 0.5
369 1 0.816413 0.788174 0.5
385 1 0.861954 0.811452 0.5
393 1 0.960206 0.797892 0.5
390 1 0.6863 0.835635 0.5
378 1 0.733727 0.852839 0.5
397 1 0.820364 0.843079 0.5
127 1 0.917478 0.82961 0.5
388 1 0.969997 0.848099 0.5
389 1 0.687806 0.885478 0.5
391 1 0.779086 0.873296 0.5
399 1 0.875074 0.861798 0.5
1 1 0.931084 0.881221 0.5
280 1 0.73589 0.9044 0.5
283 1 0.788372 0.924796 0.5
398 1 0.833347 0.893611 0.5
286 1 0.888892 0.909708 0.5
128 1 0.983475 0.902963 0.5
396 1 0.699663 0.942575 0.5
284 1 0.749203 0.956661 0.5
400 1 0.848732 0.944294 0.5
8 1 0.893611 0.964054 0.5
135 1 0.942467 0.931919 0.5
15 1 0.996555 0.952667 0.5
282 1 0.706442 0.994057 0.5
290 1 0.804595 0.974831 0.5
292 1 0.850926 0.995234 0.5
394 1 0.949713 0.987666 0.5
