ITEM: TIMESTEP
100000
ITEM: NUMBER OF ATOMS
400
ITEM: BOX BOUNDS pp pp pp
0.0000000000000000e+00 2.1081851067789195e+01
0.0000000000000000e+00 2.1081851067789195e+01
-5.2704627669472992e-01 5.2704627669472992e-01
ITEM: ATOMS id type xs ys zs
165 1 0.313783 0.141626 0.5
264 1 0.137113 0.04896 0.5
374 1 0.100853 0.0169363 0.5
178 1 0.271956 0.402424 0.5
3 1 0.311951 0.279036 0.5
114 1 0.132944 0.468025 0.5
222 1 0.00398866 0.00423015 0.5
83 1 0.242203 0.463612 0.5
24 1 0.067401 0.389536 0.5
274 1 0.132865 0.10733 0.5
382 1 0.034243 0.190145 0.5
224 1 0.0168163 0.230669 0.5
284 1 0.0487596 0.346779 0.5
259 1 0.0963745 0.0690094 0.5
247 1 0.199398 0.044842 0.5
63 1 0.164812 0.0126188 0.5
19 1 0.275003 0.104072 0.5
399 1 0.22734 0.0863837 0.5
237 1 0.307804 0.0702193 0.5
228 1 0.107379 0.146056 0.5
300 1 0.0494056 0.00822783 0.5
278 1 0.261825 0.209214 0.5
251 1 0.0756209 0.110729 0.5
181 1 0.185042 0.100018 0.5
275 1 0.273186 0.165523 0.5
12 1 0.200399 0.484958 0.5
209 1 0.223642 0.385659 0.5
110 1 0.185431 0.145324 0.5
369 1 0.230013 0.132224 0.5
118 1 0.302573 0.232562 0.5
115 1 0.306942 0.0175186 0.5
400 1 0.0568532 0.154071 0.5
331 1 0.201001 0.235852 0.5
78 1 0.211149 0.190792 0.5
288 1 0.0135734 0.1467 0.5
121 1 0.0906947 0.207259 0.5
348 1 0.250184 0.25516 0.5
55 1 0.0537686 0.0567097 0.5
85 1 0.0209278 0.382353 0.5
117 1 0.00654988 0.0537124 0.5
242 1 0.159367 0.221795 0.5
23 1 0.152949 0.177634 0.5
11 1 0.00913495 0.494873 0.5
299 1 0.305292 0.368861 0.5
17 1 0.117042 0.245248 0.5
18 1 0.270401 0.299682 0.5
76 1 0.0597694 0.257333 0.5
65 1 0.114333 0.355554 0.5
289 1 0.159597 0.273783 0.5
127 1 0.221417 0.294874 0.5
67 1 0.260886 0.346985 0.5
196 1 0.306616 0.470672 0.5
49 1 0.0655824 0.302592 0.5
64 1 0.133643 0.40478 0.5
358 1 0.113111 0.293472 0.5
168 1 0.207352 0.339825 0.5
109 1 0.0300034 0.43785 0.5
71 1 0.0983146 0.434102 0.5
339 1 0.17239 0.371336 0.5
267 1 0.176403 0.431676 0.5
344 1 0.246557 0.0374451 0.5
283 1 0.162675 0.323789 0.5
360 1 0.0249992 0.10318 0.5
4 1 0.0683283 0.472626 0.5
354 1 0.318058 0.417062 0.5
268 1 0.327204 0.328009 0.5
337 1 0.324395 0.186132 0.5
179 1 0.0366419 0.573415 0.5
82 1 0.130904 0.555839 0.5
232 1 0.0505036 0.525585 0.5
292 1 0.246298 0.945004 0.5
389 1 0.082927 0.593454 0.5
33 1 0.0241286 0.68487 0.5
166 1 0.138399 0.974898 0.5
139 1 0.156699 0.764878 0.5
207 1 0.265365 0.55586 0.5
294 1 0.22692 0.639676 0.5
307 1 0.00138756 0.541127 0.5
25 1 0.100902 0.637946 0.5
248 1 0.158714 0.644069 0.5
230 1 0.0478538 0.625656 0.5
112 1 0.285175 0.864723 0.5
266 1 0.108569 0.691332 0.5
350 1 0.17741 0.601727 0.5
72 1 0.293496 0.641559 0.5
366 1 0.265195 0.606117 0.5
39 1 0.0540732 0.723118 0.5
231 1 0.195752 0.676229 0.5
384 1 0.208331 0.774304 0.5
336 1 0.239458 0.745211 0.5
312 1 0.0892141 0.77629 0.5
234 1 0.0113854 0.815818 0.5
15 1 0.129268 0.802975 0.5
325 1 0.275426 0.792929 0.5
46 1 0.324044 0.809987 0.5
388 1 0.182362 0.965549 0.5
370 1 0.0684925 0.670992 0.5
279 1 0.117327 0.736395 0.5
92 1 0.0347002 0.774721 0.5
141 1 0.191453 0.731436 0.5
375 1 0.152269 0.694705 0.5
86 1 0.239248 0.857424 0.5
260 1 0.0951982 0.851162 0.5
250 1 0.232886 0.81239 0.5
297 1 0.269785 0.503307 0.5
130 1 0.301796 0.686772 0.5
246 1 0.268499 0.992463 0.5
390 1 0.0634328 0.811511 0.5
32 1 0.140951 0.85184 0.5
34 1 0.217113 0.573242 0.5
87 1 0.0505759 0.854269 0.5
111 1 0.120189 0.892295 0.5
340 1 0.212169 0.912228 0.5
368 1 0.18107 0.824486 0.5
7 1 0.258194 0.900657 0.5
143 1 0.28928 0.739304 0.5
148 1 0.0268544 0.900519 0.5
201 1 0.10863 0.936442 0.5
74 1 0.159719 0.924599 0.5
52 1 0.291632 0.944557 0.5
287 1 0.31444 0.903207 0.5
103 1 0.0733395 0.900074 0.5
253 1 0.132426 0.602517 0.5
212 1 0.173234 0.522776 0.5
38 1 0.226076 0.524627 0.5
397 1 0.178414 0.878975 0.5
80 1 0.0672568 0.959294 0.5
257 1 0.243713 0.698828 0.5
302 1 0.311007 0.528686 0.5
184 1 0.31825 0.572915 0.5
73 1 0.021914 0.951012 0.5
185 1 0.10616 0.511976 0.5
51 1 0.220231 0.994139 0.5
296 1 0.329802 0.85703 0.5
30 1 0.582217 0.465965 0.5
81 1 0.457059 0.415099 0.5
150 1 0.494607 0.440746 0.5
319 1 0.354712 0.228236 0.5
310 1 0.349655 0.047281 0.5
157 1 0.574027 0.0676893 0.5
182 1 0.626287 0.0392941 0.5
44 1 0.453222 0.460081 0.5
29 1 0.39488 0.0569907 0.5
138 1 0.455783 0.0998305 0.5
315 1 0.404483 0.105611 0.5
173 1 0.618042 0.431819 0.5
175 1 0.666784 0.0208985 0.5
255 1 0.524306 0.0795706 0.5
395 1 0.473566 0.167853 0.5
335 1 0.626811 0.103512 0.5
186 1 0.378887 0.18581 0.5
26 1 0.515755 0.130025 0.5
187 1 0.617327 0.154351 0.5
152 1 0.663463 0.158988 0.5
154 1 0.544018 0.491127 0.5
90 1 0.525959 0.178851 0.5
314 1 0.570169 0.169406 0.5
256 1 0.356304 0.291807 0.5
202 1 0.433467 0.144146 0.5
394 1 0.479216 0.213528 0.5
306 1 0.580568 0.215519 0.5
10 1 0.631133 0.199366 0.5
239 1 0.586623 0.274264 0.5
5 1 0.630581 0.384521 0.5
220 1 0.39987 0.227693 0.5
133 1 0.498452 0.307387 0.5
132 1 0.564689 0.314653 0.5
158 1 0.426117 0.187005 0.5
79 1 0.436458 0.309141 0.5
345 1 0.442087 0.251217 0.5
100 1 0.53342 0.27144 0.5
192 1 0.619183 0.245282 0.5
198 1 0.640005 0.293237 0.5
282 1 0.360716 0.442051 0.5
223 1 0.529481 0.225785 0.5
170 1 0.52345 0.351585 0.5
41 1 0.604908 0.340003 0.5
269 1 0.639932 0.486023 0.5
396 1 0.350895 0.367618 0.5
317 1 0.469667 0.342304 0.5
263 1 0.389468 0.324331 0.5
379 1 0.487701 0.258696 0.5
16 1 0.581465 0.391034 0.5
241 1 0.44596 0.0552909 0.5
333 1 0.540352 0.436502 0.5
272 1 0.405086 0.454972 0.5
378 1 0.399541 0.403908 0.5
137 1 0.514931 0.397573 0.5
57 1 0.496203 0.0402695 0.5
303 1 0.653261 0.339285 0.5
356 1 0.346019 0.0939689 0.5
215 1 0.3991 0.0106204 0.5
167 1 0.423779 0.360364 0.5
146 1 0.370578 0.134785 0.5
321 1 0.562152 0.115559 0.5
304 1 0.401667 0.277546 0.5
134 1 0.354813 0.487867 0.5
391 1 0.540048 0.0357506 0.5
142 1 0.583886 0.0156283 0.5
238 1 0.49459 0.490079 0.5
190 1 0.66327 0.0734767 0.5
96 1 0.456726 0.00990328 0.5
206 1 0.657002 0.848947 0.5
258 1 0.442165 0.508012 0.5
140 1 0.610687 0.951566 0.5
243 1 0.441856 0.957567 0.5
151 1 0.59203 0.908674 0.5
14 1 0.450133 0.557464 0.5
47 1 0.590206 0.570974 0.5
77 1 0.354495 1.00122 0.5
107 1 0.597264 0.68787 0.5
305 1 0.537643 0.937443 0.5
197 1 0.491313 0.583156 0.5
367 1 0.504243 0.533696 0.5
95 1 0.573039 0.613912 0.5
8 1 0.629757 0.994727 0.5
68 1 0.526693 0.629399 0.5
262 1 0.548271 0.678166 0.5
171 1 0.373832 0.876209 0.5
226 1 0.396233 0.648778 0.5
327 1 0.498209 0.665176 0.5
393 1 0.47571 0.706945 0.5
147 1 0.488054 0.75864 0.5
35 1 0.546058 0.560783 0.5
290 1 0.348806 0.669087 0.5
240 1 0.449553 0.664126 0.5
172 1 0.527602 0.724046 0.5
61 1 0.610118 0.640614 0.5
164 1 0.336624 0.956267 0.5
229 1 0.424879 0.716728 0.5
210 1 0.571815 0.725861 0.5
329 1 0.60695 0.765168 0.5
169 1 0.64685 0.583776 0.5
353 1 0.36695 0.716531 0.5
332 1 0.401879 0.756172 0.5
342 1 0.445041 0.777126 0.5
62 1 0.503493 0.81913 0.5
227 1 0.635136 0.889661 0.5
383 1 0.656994 0.677365 0.5
31 1 0.409638 0.807673 0.5
56 1 0.535609 0.773341 0.5
195 1 0.338231 0.753745 0.5
203 1 0.367775 0.82701 0.5
6 1 0.548418 0.838373 0.5
45 1 0.338474 0.614666 0.5
211 1 0.655646 0.931268 0.5
36 1 0.410301 0.915767 0.5
318 1 0.464818 0.849052 0.5
352 1 0.577626 0.800089 0.5
351 1 0.642374 0.732749 0.5
101 1 0.507813 0.866898 0.5
286 1 0.638388 0.805898 0.5
373 1 0.466053 0.622223 0.5
377 1 0.46111 0.901204 0.5
70 1 0.489814 0.940621 0.5
326 1 0.601416 0.857995 0.5
280 1 0.407308 0.59668 0.5
380 1 0.506188 0.994464 0.5
218 1 0.549874 0.889454 0.5
225 1 0.364291 0.564174 0.5
161 1 0.38629 0.956613 0.5
156 1 0.660403 0.630155 0.5
106 1 0.419705 0.868509 0.5
308 1 0.561162 0.977561 0.5
116 1 0.583114 0.515437 0.5
311 1 0.624919 0.53625 0.5
357 1 0.389645 0.52637 0.5
104 1 0.739713 0.106526 0.5
265 1 0.86667 0.0661706 0.5
334 1 0.694137 0.408726 0.5
219 1 0.865397 0.00423543 0.5
298 1 0.724667 0.229836 0.5
309 1 0.873523 0.193944 0.5
193 1 0.873802 0.111228 0.5
328 1 0.686093 0.114654 0.5
376 1 0.846108 0.494799 0.5
58 1 0.768522 0.0498574 0.5
359 1 0.979283 0.0900686 0.5
75 1 0.738372 0.484856 0.5
362 1 0.725655 0.154442 0.5
205 1 0.793124 0.109278 0.5
123 1 0.9143 0.136133 0.5
27 1 0.777672 0.157182 0.5
385 1 0.845059 0.150027 0.5
301 1 0.92109 0.18115 0.5
365 1 0.767549 0.210815 0.5
42 1 0.723449 0.27764 0.5
233 1 0.812926 0.185705 0.5
43 1 0.925389 0.230149 0.5
13 1 0.974726 0.200586 0.5
330 1 0.966758 0.149854 0.5
372 1 0.837972 0.225796 0.5
128 1 0.895425 0.292617 0.5
59 1 0.955165 0.0177831 0.5
98 1 0.907223 0.0315621 0.5
392 1 0.776187 0.29697 0.5
149 1 0.813953 0.320729 0.5
155 1 0.883496 0.24781 0.5
189 1 0.739602 0.379499 0.5
125 1 0.791063 0.363146 0.5
37 1 0.803413 0.256777 0.5
200 1 0.951178 0.317277 0.5
22 1 0.782428 0.450921 0.5
235 1 0.74757 0.330287 0.5
338 1 0.667947 0.256615 0.5
217 1 0.815731 0.0547153 0.5
285 1 0.898222 0.380877 0.5
183 1 0.866057 0.32541 0.5
105 1 0.982042 0.408916 0.5
208 1 0.980165 0.356996 0.5
153 1 0.686399 0.306723 0.5
214 1 0.803493 0.410285 0.5
355 1 0.846206 0.27561 0.5
276 1 0.860398 0.416021 0.5
163 1 0.811803 0.0099482 0.5
295 1 0.980379 0.453232 0.5
176 1 0.835039 0.376693 0.5
97 1 0.943077 0.385903 0.5
113 1 0.828105 0.452615 0.5
188 1 0.920334 0.474136 0.5
320 1 0.962675 0.265378 0.5
20 1 0.907399 0.426214 0.5
40 1 0.679831 0.201227 0.5
9 1 0.729635 0.438341 0.5
2 1 0.875658 0.460962 0.5
323 1 0.671121 0.453266 0.5
99 1 0.913769 0.0790037 0.5
162 1 0.71815 0.0586285 0.5
191 1 0.69785 0.357513 0.5
252 1 0.694203 0.500159 0.5
386 1 0.998381 0.297207 0.5
346 1 0.88752 0.515625 0.5
145 1 0.84479 0.652952 0.5
108 1 0.854973 0.561433 0.5
293 1 0.71945 0.774983 0.5
91 1 0.799854 0.639916 0.5
364 1 0.973591 0.966984 0.5
245 1 0.80206 0.580705 0.5
236 1 0.744612 0.586891 0.5
28 1 0.69585 0.585421 0.5
93 1 0.838332 0.60837 0.5
271 1 0.953661 0.55935 0.5
254 1 0.816813 0.535902 0.5
180 1 0.927998 0.980012 0.5
21 1 0.702367 0.66187 0.5
122 1 0.906713 0.556489 0.5
160 1 0.817211 0.94656 0.5
84 1 0.921979 0.931331 0.5
361 1 0.738536 0.63228 0.5
270 1 0.820434 0.695531 0.5
349 1 0.890274 0.614593 0.5
159 1 0.686438 0.723213 0.5
347 1 0.676722 0.541936 0.5
313 1 0.876012 0.68754 0.5
66 1 0.935028 0.604569 0.5
398 1 0.987949 0.875752 0.5
69 1 0.958525 0.832626 0.5
213 1 0.764785 0.67029 0.5
144 1 0.995772 0.647985 0.5
381 1 0.750835 0.955378 0.5
89 1 0.983009 0.595162 0.5
88 1 0.728119 0.701727 0.5
273 1 0.919996 0.654747 0.5
54 1 0.978777 0.691622 0.5
249 1 0.854139 0.828422 0.5
50 1 0.979121 0.780017 0.5
277 1 0.683486 0.893609 0.5
199 1 0.90533 0.75418 0.5
281 1 0.922606 0.701084 0.5
60 1 0.768562 0.720518 0.5
53 1 0.812986 0.745677 0.5
129 1 0.882669 0.7929 0.5
244 1 0.858282 0.730911 0.5
102 1 0.881593 0.954193 0.5
261 1 0.738427 0.820537 0.5
120 1 0.785363 0.819404 0.5
216 1 0.938893 0.873551 0.5
387 1 0.824055 0.793986 0.5
177 1 0.772027 0.772963 0.5
221 1 0.95041 0.743783 0.5
322 1 0.691485 0.819229 0.5
324 1 0.707195 0.942703 0.5
126 1 0.711711 0.858767 0.5
174 1 0.770919 0.865221 0.5
135 1 0.894731 0.894759 0.5
343 1 0.933956 0.793161 0.5
124 1 0.816984 0.860068 0.5
119 1 0.785897 0.910531 0.5
136 1 0.846959 0.898634 0.5
204 1 0.780368 0.504654 0.5
316 1 0.905921 0.8392 0.5
194 1 0.740058 0.904897 0.5
363 1 0.76628 0.998479 0.5
341 1 0.738326 0.528822 0.5
291 1 0.964627 0.919275 0.5
94 1 0.961954 0.503826 0.5
131 1 0.673761 0.975338 0.5
1 1 0.72031 0.998616 0.5
48 1 0.67277 0.771347 0.5
371 1 1.00018 0.735962 0.5
