ITEM: TIMESTEP
100000
ITEM: NUMBER OF ATOMS
400
ITEM: BOX BOUNDS pp pp pp
0.0000000000000000e+00 2.8284271247461902e+01
0.0000000000000000e+00 2.8284271247461902e+01
-7.0710678118654757e-01 7.0710678118654757e-01
ITEM: ATOMS id type xs ys zs
257 1 0.0104587 0.00347456 0.5
233 1 0.194208 0.00112188 0.5
123 1 0.321132 0.0127985 0.5
293 1 0.0321523 0.036621 0.5
162 1 0.241884 0.0399039 0.5
386 1 0.0227487 0.0704416 0.5
57 1 0.114881 0.0494264 0.5
204 1 0.187784 0.0480234 0.5
344 1 0.266722 0.06439 0.5
225 1 0.303626 0.0626481 0.5
349 1 0.208163 0.0763402 0.5
41 1 0.00275664 0.105939 0.5
399 1 0.0943788 0.0953922 0.5
322 1 0.222054 0.107791 0.5
154 1 0.259074 0.1079 0.5
361 1 0.32289 0.0954122 0.5
195 1 0.08016 0.128111 0.5
11 1 0.138837 0.121732 0.5
213 1 0.173658 0.131699 0.5
355 1 0.0101248 0.147166 0.5
85 1 0.0551951 0.157161 0.5
336 1 0.109606 0.164955 0.5
77 1 0.237149 0.156023 0.5
125 1 0.0252666 0.17973 0.5
68 1 0.179027 0.178245 0.5
395 1 0.280251 0.183196 0.5
243 1 0.0882615 0.190906 0.5
236 1 0.134427 0.20216 0.5
299 1 0.0278325 0.220162 0.5
228 1 0.174124 0.236908 0.5
393 1 0.240762 0.226772 0.5
261 1 0.286143 0.222114 0.5
271 1 0.32904 0.235383 0.5
229 1 0.0879168 0.243591 0.5
62 1 0.133919 0.257752 0.5
275 1 0.0296019 0.264832 0.5
371 1 0.0893698 0.284792 0.5
306 1 0.199675 0.279179 0.5
263 1 0.270046 0.274728 0.5
110 1 0.0571564 0.296787 0.5
245 1 0.122623 0.297732 0.5
93 1 0.158736 0.287267 0.5
232 1 0.324515 0.287046 0.5
239 1 0.0613078 0.342438 0.5
169 1 0.121153 0.339656 0.5
12 1 0.152339 0.355478 0.5
75 1 0.18084 0.336713 0.5
158 1 0.260879 0.339156 0.5
345 1 0.328861 0.337693 0.5
205 1 0.201554 0.375096 0.5
108 1 0.243364 0.365932 0.5
298 1 0.302489 0.363549 0.5
365 1 0.0230949 0.388725 0.5
337 1 0.0598485 0.383108 0.5
16 1 0.0968422 0.387512 0.5
265 1 0.105573 0.424075 0.5
222 1 0.143403 0.422493 0.5
346 1 0.243911 0.427956 0.5
34 1 0.285436 0.417014 0.5
13 1 0.331375 0.416573 0.5
370 1 0.0203804 0.428751 0.5
242 1 0.0151598 0.475407 0.5
132 1 0.0788306 0.457747 0.5
341 1 0.138111 0.456679 0.5
171 1 0.214123 0.458852 0.5
305 1 0.300528 0.453598 0.5
382 1 0.0772158 0.495442 0.5
287 1 0.120879 0.491677 0.5
335 1 0.190924 0.498364 0.5
21 1 0.276611 0.49454 0.5
358 1 0.0518902 0.525068 0.5
284 1 0.106903 0.531458 0.5
281 1 0.181214 0.53912 0.5
350 1 0.226956 0.524035 0.5
202 1 0.313396 0.543426 0.5
203 1 0.0094711 0.548997 0.5
188 1 0.157085 0.565387 0.5
379 1 0.235334 0.559165 0.5
190 1 0.0810331 0.574925 0.5
201 1 0.282362 0.592609 0.5
285 1 0.325104 0.586777 0.5
126 1 0.0442671 0.605969 0.5
134 1 0.131771 0.613712 0.5
95 1 0.179374 0.607855 0.5
44 1 0.231741 0.615418 0.5
280 1 0.0101042 0.621165 0.5
198 1 0.0985398 0.623012 0.5
317 1 0.201603 0.634096 0.5
223 1 0.275209 0.62948 0.5
400 1 0.00966794 0.663397 0.5
102 1 0.141415 0.653186 0.5
327 1 0.200808 0.67541 0.5
180 1 0.294781 0.677357 0.5
267 1 0.00437604 0.700031 0.5
221 1 0.0551485 0.704557 0.5
212 1 0.0956611 0.694457 0.5
121 1 0.15925 0.693902 0.5
72 1 0.190577 0.708608 0.5
253 1 0.0769182 0.733805 0.5
81 1 0.111382 0.724175 0.5
53 1 0.263159 0.733157 0.5
181 1 0.013056 0.742738 0.5
52 1 0.155223 0.745271 0.5
6 1 0.218927 0.745552 0.5
30 1 0.30685 0.753506 0.5
141 1 0.0406889 0.763735 0.5
97 1 0.112742 0.768669 0.5
250 1 0.194791 0.772132 0.5
96 1 0.254144 0.766059 0.5
362 1 0.289082 0.785057 0.5
74 1 0.0152142 0.804145 0.5
220 1 0.0545698 0.80182 0.5
206 1 0.135149 0.809273 0.5
356 1 0.0798685 0.826827 0.5
260 1 0.181401 0.826169 0.5
167 1 0.309921 0.822913 0.5
33 1 0.0189166 0.846403 0.5
301 1 0.213531 0.845287 0.5
66 1 0.0522125 0.865362 0.5
373 1 0.0959957 0.860057 0.5
3 1 0.144244 0.857275 0.5
270 1 0.267416 0.864129 0.5
331 1 0.300561 0.875564 0.5
262 1 2.59634e-05 0.894665 0.5
116 1 0.235428 0.895633 0.5
1 1 0.108124 0.90562 0.5
231 1 0.279944 0.924043 0.5
292 1 0.318806 0.912799 0.5
79 1 0.00348395 0.939566 0.5
249 1 0.0713876 0.935317 0.5
332 1 0.107604 0.942125 0.5
49 1 0.15812 0.92963 0.5
398 1 0.0533028 0.973587 0.5
101 1 0.170016 0.972907 0.5
368 1 0.207284 0.9526 0.5
295 1 0.0960771 0.994619 0.5
219 1 0.243787 0.991051 0.5
375 1 0.28813 0.98609 0.5
312 1 0.410992 0.000235964 0.5
339 1 0.519857 0.0113351 0.5
151 1 0.59781 0.00830853 0.5
319 1 0.645593 0.000591408 0.5
367 1 0.441828 0.0470743 0.5
273 1 0.477663 0.0252112 0.5
142 1 0.631349 0.0337597 0.5
128 1 0.665569 0.0278163 0.5
92 1 0.390559 0.0553725 0.5
241 1 0.521133 0.0584596 0.5
175 1 0.603207 0.0629207 0.5
340 1 0.37819 0.0870532 0.5
247 1 0.411622 0.111247 0.5
166 1 0.630338 0.117254 0.5
286 1 0.339737 0.127787 0.5
218 1 0.452881 0.121655 0.5
192 1 0.509056 0.132773 0.5
91 1 0.358211 0.158948 0.5
348 1 0.404575 0.148211 0.5
64 1 0.55012 0.161667 0.5
133 1 0.629638 0.162985 0.5
69 1 0.664483 0.15546 0.5
127 1 0.382613 0.182214 0.5
67 1 0.437345 0.18451 0.5
385 1 0.34791 0.201729 0.5
56 1 0.406089 0.212224 0.5
182 1 0.510587 0.199655 0.5
209 1 0.560341 0.194142 0.5
37 1 0.50741 0.23527 0.5
65 1 0.646152 0.223018 0.5
396 1 0.458846 0.241495 0.5
163 1 0.559376 0.238621 0.5
78 1 0.602786 0.253543 0.5
83 1 0.660681 0.257035 0.5
269 1 0.423123 0.274012 0.5
160 1 0.51569 0.270089 0.5
347 1 0.48356 0.288887 0.5
208 1 0.552459 0.296264 0.5
359 1 0.601371 0.289213 0.5
27 1 0.366273 0.321924 0.5
152 1 0.510255 0.31352 0.5
185 1 0.595258 0.325107 0.5
210 1 0.425722 0.336815 0.5
230 1 0.483895 0.349986 0.5
104 1 0.567598 0.34461 0.5
119 1 0.623986 0.349434 0.5
86 1 0.351575 0.377695 0.5
170 1 0.387356 0.380433 0.5
388 1 0.596099 0.375534 0.5
289 1 0.535027 0.399216 0.5
318 1 0.365411 0.412069 0.5
391 1 0.428119 0.41795 0.5
139 1 0.56241 0.42788 0.5
140 1 0.651463 0.423999 0.5
189 1 0.458735 0.433293 0.5
372 1 0.519126 0.445867 0.5
130 1 0.621475 0.448276 0.5
283 1 0.349083 0.452893 0.5
384 1 0.404679 0.46222 0.5
197 1 0.483597 0.462395 0.5
274 1 0.558622 0.467433 0.5
23 1 0.370193 0.479485 0.5
172 1 0.579467 0.495913 0.5
279 1 0.336577 0.510645 0.5
105 1 0.433353 0.509003 0.5
159 1 0.487193 0.514995 0.5
87 1 0.522153 0.501167 0.5
244 1 0.620679 0.521611 0.5
39 1 0.657327 0.512454 0.5
334 1 0.448573 0.5417 0.5
19 1 0.566344 0.544597 0.5
324 1 0.370823 0.57057 0.5
329 1 0.409815 0.569366 0.5
304 1 0.491553 0.565737 0.5
38 1 0.585986 0.580237 0.5
76 1 0.39026 0.618579 0.5
50 1 0.464736 0.598939 0.5
374 1 0.589899 0.618295 0.5
122 1 0.621661 0.601016 0.5
377 1 0.515656 0.638204 0.5
217 1 0.549186 0.626512 0.5
32 1 0.64683 0.627943 0.5
308 1 0.345333 0.643195 0.5
150 1 0.416729 0.650335 0.5
42 1 0.618602 0.647541 0.5
389 1 0.381335 0.679278 0.5
148 1 0.460837 0.667896 0.5
321 1 0.556213 0.677987 0.5
235 1 0.595305 0.676556 0.5
179 1 0.633654 0.690302 0.5
36 1 0.340379 0.703939 0.5
55 1 0.488975 0.690991 0.5
353 1 0.599282 0.71217 0.5
357 1 0.370188 0.725042 0.5
288 1 0.430178 0.720063 0.5
315 1 0.501767 0.727641 0.5
137 1 0.552497 0.71601 0.5
338 1 0.641907 0.732825 0.5
120 1 0.347221 0.758714 0.5
314 1 0.624502 0.760647 0.5
25 1 0.377986 0.782644 0.5
18 1 0.416086 0.769334 0.5
369 1 0.50429 0.770581 0.5
256 1 0.337771 0.79523 0.5
176 1 0.469896 0.796265 0.5
61 1 0.536479 0.789652 0.5
90 1 0.625034 0.800999 0.5
310 1 0.403837 0.828571 0.5
51 1 0.503494 0.810862 0.5
73 1 0.558097 0.818248 0.5
177 1 0.344687 0.842055 0.5
112 1 0.451383 0.849227 0.5
17 1 0.595381 0.854399 0.5
183 1 0.376015 0.863859 0.5
258 1 0.42757 0.876788 0.5
211 1 0.496072 0.868938 0.5
113 1 0.552382 0.867612 0.5
146 1 0.606416 0.88834 0.5
98 1 0.642046 0.889049 0.5
302 1 0.537281 0.921081 0.5
54 1 0.576606 0.908751 0.5
145 1 0.351603 0.942952 0.5
316 1 0.431547 0.933568 0.5
238 1 0.489884 0.929668 0.5
60 1 0.647316 0.936694 0.5
48 1 0.391986 0.962212 0.5
191 1 0.476267 0.961803 0.5
143 1 0.617437 0.967309 0.5
99 1 0.659845 0.971174 0.5
149 1 0.365136 0.996514 0.5
237 1 0.569098 0.978287 0.5
5 1 0.786024 0.0226142 0.5
234 1 0.971345 0.0124577 0.5
240 1 0.712008 0.0336935 0.5
10 1 0.830492 0.0353059 0.5
131 1 0.932881 0.0402217 0.5
364 1 0.870378 0.0688291 0.5
2 1 0.783507 0.0714522 0.5
135 1 0.832222 0.0926634 0.5
376 1 0.911486 0.0802371 0.5
277 1 0.966014 0.0915213 0.5
168 1 0.674898 0.113801 0.5
297 1 0.722635 0.101513 0.5
24 1 0.763579 0.116178 0.5
378 1 0.806204 0.12347 0.5
164 1 0.852487 0.13519 0.5
199 1 0.965906 0.126506 0.5
251 1 0.707305 0.160405 0.5
107 1 0.746815 0.152979 0.5
26 1 0.902948 0.158948 0.5
155 1 0.93797 0.148105 0.5
252 1 0.973726 0.158438 0.5
352 1 0.824477 0.16678 0.5
266 1 0.877107 0.184707 0.5
118 1 0.948971 0.18392 0.5
397 1 0.702446 0.200699 0.5
4 1 0.775902 0.213666 0.5
390 1 0.819379 0.213693 0.5
59 1 0.917544 0.231093 0.5
47 1 0.992828 0.221366 0.5
114 1 0.726531 0.23911 0.5
360 1 0.814745 0.252949 0.5
106 1 0.848832 0.25506 0.5
174 1 0.88051 0.238302 0.5
326 1 0.70657 0.271458 0.5
309 1 0.744814 0.27242 0.5
173 1 0.780604 0.264841 0.5
71 1 0.988552 0.266945 0.5
100 1 0.822809 0.2916 0.5
351 1 0.864115 0.287234 0.5
14 1 0.701926 0.323056 0.5
40 1 0.770232 0.310096 0.5
20 1 0.902176 0.313822 0.5
196 1 0.941413 0.328667 0.5
255 1 0.988986 0.333333 0.5
381 1 0.678506 0.372908 0.5
392 1 0.724879 0.357144 0.5
246 1 0.774525 0.359376 0.5
296 1 0.809554 0.366745 0.5
43 1 0.847913 0.373157 0.5
187 1 0.895784 0.362572 0.5
89 1 0.959702 0.365291 0.5
311 1 0.995237 0.365098 0.5
259 1 0.71768 0.392903 0.5
282 1 0.761531 0.400759 0.5
8 1 0.812585 0.402343 0.5
186 1 0.932596 0.392733 0.5
320 1 0.789681 0.427958 0.5
248 1 0.697452 0.445675 0.5
136 1 0.753835 0.43696 0.5
343 1 0.852911 0.441084 0.5
268 1 0.953718 0.42991 0.5
194 1 0.919862 0.47253 0.5
58 1 0.980445 0.472402 0.5
394 1 0.729551 0.479591 0.5
31 1 0.878829 0.489519 0.5
330 1 0.694572 0.511434 0.5
103 1 0.744559 0.517606 0.5
124 1 0.79688 0.51889 0.5
227 1 0.831832 0.513385 0.5
115 1 0.920439 0.520504 0.5
323 1 0.955921 0.509861 0.5
300 1 0.992135 0.507447 0.5
63 1 0.87299 0.536808 0.5
272 1 0.785662 0.56215 0.5
165 1 0.825366 0.54864 0.5
216 1 0.903245 0.552129 0.5
294 1 0.974988 0.555932 0.5
254 1 0.67871 0.572014 0.5
264 1 0.838239 0.584999 0.5
147 1 0.876043 0.579249 0.5
380 1 0.701385 0.601796 0.5
15 1 0.772782 0.595434 0.5
290 1 0.808787 0.611175 0.5
70 1 0.913611 0.597594 0.5
193 1 0.86015 0.633134 0.5
342 1 0.940797 0.630306 0.5
28 1 0.673603 0.653108 0.5
117 1 0.724108 0.657436 0.5
111 1 0.83182 0.657804 0.5
278 1 0.974355 0.644546 0.5
215 1 0.913131 0.671557 0.5
9 1 0.957909 0.682281 0.5
35 1 0.7281 0.694124 0.5
207 1 0.759188 0.708768 0.5
303 1 0.811941 0.710843 0.5
88 1 0.872016 0.699022 0.5
138 1 0.685984 0.723986 0.5
313 1 0.922865 0.728603 0.5
129 1 0.97901 0.729608 0.5
45 1 0.789848 0.761878 0.5
29 1 0.887864 0.742269 0.5
153 1 0.688663 0.766364 0.5
383 1 0.737247 0.763957 0.5
109 1 0.827342 0.763837 0.5
144 1 0.871769 0.778092 0.5
224 1 0.978017 0.781162 0.5
161 1 0.670231 0.798375 0.5
333 1 0.710277 0.796304 0.5
354 1 0.929672 0.787029 0.5
46 1 0.772214 0.831669 0.5
22 1 0.847256 0.82037 0.5
328 1 0.896678 0.831085 0.5
291 1 0.941707 0.820769 0.5
307 1 0.667068 0.83458 0.5
366 1 0.703035 0.877311 0.5
200 1 0.746003 0.860229 0.5
214 1 0.869605 0.858438 0.5
80 1 0.906534 0.879965 0.5
94 1 0.971118 0.867171 0.5
276 1 0.797425 0.885854 0.5
184 1 0.94061 0.885253 0.5
84 1 0.675334 0.908244 0.5
387 1 0.724802 0.907462 0.5
226 1 0.881955 0.909975 0.5
82 1 0.920733 0.917906 0.5
156 1 0.972973 0.928196 0.5
325 1 0.687378 0.94211 0.5
7 1 0.836047 0.935114 0.5
363 1 0.803636 0.989434 0.5
157 1 0.844953 0.98397 0.5
178 1 0.915303 0.990193 0.5
