ITEM: TIMESTEP
100000
ITEM: NUMBER OF ATOMS
400
ITEM: BOX BOUNDS pp pp pp
0.0000000000000000e+00 2.0000000000000000e+01
0.0000000000000000e+00 2.0000000000000000e+01
-5.0000000000000000e-01 5.0000000000000000e-01
ITEM: ATOMS id type xs ys zs
94 1 0.0209807 0.0277374 0.5
379 1 0.0712877 0.0259852 0.5
243 1 0.224267 0.00390658 0.5
146 1 0.275534 0.0159398 0.5
245 1 0.119449 0.0399981 0.5
355 1 0.184624 0.0381443 0.5
227 1 0.236132 0.0526438 0.5
104 1 0.328303 0.0417296 0.5
393 1 0.00524668 0.077809 0.5
24 1 0.0546186 0.0797434 0.5
278 1 0.102613 0.0962755 0.5
252 1 0.147704 0.079088 0.5
99 1 0.201179 0.084483 0.5
372 1 0.285775 0.0722348 0.5
381 1 0.0097653 0.12631 0.5
231 1 0.058254 0.131028 0.5
132 1 0.166029 0.12848 0.5
253 1 0.251745 0.105307 0.5
75 1 0.300224 0.12498 0.5
338 1 0.115398 0.15027 0.5
115 1 0.22071 0.144074 0.5
230 1 0.26936 0.162589 0.5
251 1 0.0284236 0.175366 0.5
364 1 0.0746239 0.180765 0.5
120 1 0.168866 0.174439 0.5
50 1 0.221502 0.193161 0.5
42 1 0.317186 0.170229 0.5
272 1 0.0429504 0.229114 0.5
225 1 0.128971 0.206966 0.5
305 1 0.178214 0.225445 0.5
221 1 0.268572 0.210484 0.5
277 1 0.322608 0.222624 0.5
344 1 0.0892185 0.240873 0.5
175 1 0.143505 0.259718 0.5
139 1 0.229523 0.241483 0.5
367 1 0.286571 0.254584 0.5
398 1 0.0484374 0.279635 0.5
66 1 0.102392 0.297177 0.5
3 1 0.190887 0.281455 0.5
307 1 0.242312 0.288958 0.5
215 1 0.333107 0.272714 0.5
65 1 0.00934931 0.311844 0.5
192 1 0.0614102 0.326769 0.5
92 1 0.149846 0.311421 0.5
269 1 0.201737 0.330633 0.5
384 1 0.291368 0.307509 0.5
350 1 0.0275352 0.361211 0.5
9 1 0.109431 0.34724 0.5
228 1 0.161023 0.359564 0.5
186 1 0.256592 0.340407 0.5
185 1 0.309252 0.355976 0.5
318 1 0.072398 0.38027 0.5
150 1 0.121309 0.393181 0.5
399 1 0.216666 0.377638 0.5
365 1 0.269233 0.386292 0.5
302 1 0.036385 0.413737 0.5
188 1 0.0901562 0.431663 0.5
100 1 0.172112 0.414507 0.5
216 1 0.238623 0.425622 0.5
13 1 0.325792 0.40319 0.5
84 1 0.0535455 0.465211 0.5
328 1 0.14011 0.452233 0.5
217 1 0.1951 0.457321 0.5
348 1 0.294329 0.438454 0.5
179 1 0.108599 0.487465 0.5
14 1 0.16243 0.498888 0.5
373 1 0.249694 0.477728 0.5
96 1 0.302099 0.498422 0.5
72 1 0.0173819 0.500486 0.5
33 1 0.0721828 0.51682 0.5
82 1 0.120338 0.533167 0.5
293 1 0.217022 0.5123 0.5
290 1 0.267793 0.533306 0.5
97 1 0.0331613 0.555456 0.5
323 1 0.178065 0.547617 0.5
56 1 0.320525 0.5434 0.5
133 1 0.0787336 0.575432 0.5
299 1 0.131173 0.585309 0.5
300 1 0.230647 0.567175 0.5
249 1 0.277651 0.579972 0.5
126 1 0.330551 0.5952 0.5
291 1 0.043972 0.609638 0.5
356 1 0.0991469 0.621957 0.5
19 1 0.178056 0.60192 0.5
229 1 0.225592 0.619779 0.5
265 1 0.281983 0.627128 0.5
74 1 0.0130219 0.64742 0.5
86 1 0.0632161 0.658863 0.5
208 1 0.143982 0.637728 0.5
292 1 0.193005 0.659785 0.5
27 1 0.242368 0.664935 0.5
109 1 0.0276178 0.693891 0.5
76 1 0.111194 0.672413 0.5
315 1 0.161687 0.697963 0.5
347 1 0.292836 0.67827 0.5
38 1 0.081185 0.711474 0.5
343 1 0.212683 0.706087 0.5
280 1 0.261173 0.71618 0.5
212 1 0.30791 0.728691 0.5
39 1 0.0306284 0.742354 0.5
60 1 0.0747885 0.764174 0.5
49 1 0.124364 0.737047 0.5
213 1 0.171641 0.755524 0.5
156 1 0.22348 0.752023 0.5
255 1 0.0167158 0.787815 0.5
172 1 0.118717 0.78812 0.5
336 1 0.20424 0.798186 0.5
320 1 0.267792 0.767442 0.5
122 1 0.0772986 0.812952 0.5
69 1 0.1633 0.828039 0.5
394 1 0.256183 0.821594 0.5
322 1 0.299527 0.803272 0.5
134 1 0.0377197 0.846277 0.5
93 1 0.110791 0.85009 0.5
137 1 0.209668 0.847174 0.5
397 1 0.311457 0.852595 0.5
262 1 0.0125944 0.890234 0.5
114 1 0.0690371 0.884891 0.5
135 1 0.12615 0.897964 0.5
335 1 0.172272 0.881897 0.5
389 1 0.265846 0.870639 0.5
95 1 0.316865 0.898282 0.5
125 1 0.191093 0.92685 0.5
324 1 0.229212 0.901071 0.5
168 1 0.274757 0.916858 0.5
260 1 0.0407322 0.935272 0.5
83 1 0.0924624 0.935455 0.5
88 1 0.145065 0.943681 0.5
237 1 0.240841 0.954863 0.5
380 1 0.290427 0.964996 0.5
363 1 0.00541894 0.97877 0.5
106 1 0.0586202 0.979319 0.5
89 1 0.110246 0.982436 0.5
385 1 0.174588 0.986447 0.5
78 1 0.345479 0.000214601 0.5
61 1 0.406942 0.00783504 0.5
257 1 0.456749 0.0149074 0.5
64 1 0.505557 0.0323133 0.5
189 1 0.596626 0.0155706 0.5
116 1 0.659082 0.0158895 0.5
26 1 0.376603 0.0482241 0.5
239 1 0.424228 0.0534843 0.5
29 1 0.565525 0.058675 0.5
371 1 0.614572 0.0618072 0.5
242 1 0.344362 0.0851917 0.5
12 1 0.471156 0.0748516 0.5
101 1 0.519774 0.0828002 0.5
197 1 0.664239 0.081898 0.5
349 1 0.391641 0.106229 0.5
17 1 0.437687 0.121071 0.5
332 1 0.488987 0.126567 0.5
370 1 0.545968 0.127536 0.5
202 1 0.594282 0.106098 0.5
374 1 0.352065 0.138471 0.5
203 1 0.403835 0.157145 0.5
141 1 0.591192 0.157217 0.5
321 1 0.36304 0.190804 0.5
28 1 0.452152 0.16792 0.5
325 1 0.498158 0.174194 0.5
149 1 0.549411 0.186917 0.5
294 1 0.63735 0.167979 0.5
36 1 0.416198 0.201636 0.5
121 1 0.463513 0.219 0.5
152 1 0.515711 0.221041 0.5
226 1 0.606119 0.208246 0.5
67 1 0.655771 0.217586 0.5
102 1 0.367075 0.239444 0.5
288 1 0.415497 0.249891 0.5
22 1 0.483236 0.261411 0.5
368 1 0.565834 0.235882 0.5
274 1 0.613733 0.258317 0.5
223 1 0.383 0.284826 0.5
286 1 0.439475 0.293343 0.5
6 1 0.530697 0.2724 0.5
214 1 0.576192 0.288597 0.5
160 1 0.658799 0.267379 0.5
55 1 0.346326 0.319071 0.5
304 1 0.486586 0.312955 0.5
316 1 0.536044 0.322426 0.5
392 1 0.630592 0.306382 0.5
396 1 0.358665 0.365768 0.5
387 1 0.408358 0.339047 0.5
8 1 0.457945 0.350048 0.5
53 1 0.503087 0.35877 0.5
52 1 0.589732 0.33588 0.5
91 1 0.635594 0.362307 0.5
353 1 0.402577 0.387316 0.5
258 1 0.452928 0.399054 0.5
59 1 0.565016 0.379288 0.5
45 1 0.370701 0.424277 0.5
79 1 0.52821 0.417121 0.5
140 1 0.609894 0.405863 0.5
209 1 0.661102 0.409788 0.5
250 1 0.336827 0.465126 0.5
306 1 0.426303 0.440487 0.5
80 1 0.47643 0.442065 0.5
142 1 0.576682 0.438307 0.5
236 1 0.626007 0.450843 0.5
354 1 0.385971 0.471972 0.5
337 1 0.437764 0.486985 0.5
62 1 0.48431 0.492219 0.5
264 1 0.534847 0.467165 0.5
319 1 0.581532 0.487593 0.5
164 1 0.356643 0.51221 0.5
224 1 0.409407 0.528538 0.5
58 1 0.542805 0.517555 0.5
195 1 0.638528 0.501373 0.5
383 1 0.371613 0.558818 0.5
37 1 0.455787 0.543421 0.5
11 1 0.512348 0.55561 0.5
382 1 0.602978 0.534573 0.5
361 1 0.649823 0.546591 0.5
297 1 0.418333 0.578404 0.5
174 1 0.466536 0.592361 0.5
147 1 0.56323 0.568264 0.5
46 1 0.617227 0.583664 0.5
90 1 0.37792 0.607946 0.5
207 1 0.420481 0.6289 0.5
169 1 0.511907 0.611394 0.5
327 1 0.568209 0.620362 0.5
155 1 0.658572 0.61086 0.5
281 1 0.337602 0.642309 0.5
176 1 0.38086 0.661876 0.5
148 1 0.476146 0.647708 0.5
47 1 0.530391 0.659948 0.5
263 1 0.619432 0.642013 0.5
112 1 0.342692 0.694283 0.5
198 1 0.432789 0.675908 0.5
218 1 0.481482 0.69669 0.5
200 1 0.581717 0.673104 0.5
244 1 0.632828 0.685588 0.5
276 1 0.395157 0.708009 0.5
44 1 0.542036 0.708738 0.5
184 1 0.588907 0.724704 0.5
273 1 0.356297 0.739633 0.5
204 1 0.408034 0.766023 0.5
166 1 0.450908 0.737954 0.5
309 1 0.504247 0.742985 0.5
153 1 0.552074 0.754831 0.5
159 1 0.636943 0.747691 0.5
128 1 0.358382 0.789559 0.5
157 1 0.463151 0.784785 0.5
310 1 0.595468 0.775379 0.5
351 1 0.397787 0.821882 0.5
15 1 0.509508 0.801788 0.5
124 1 0.561701 0.808018 0.5
326 1 0.608618 0.820339 0.5
334 1 0.656011 0.801076 0.5
41 1 0.359048 0.857827 0.5
187 1 0.461821 0.833428 0.5
71 1 0.527179 0.850059 0.5
145 1 0.581265 0.857791 0.5
73 1 0.409117 0.870052 0.5
377 1 0.4568 0.881279 0.5
201 1 0.508564 0.897287 0.5
298 1 0.636676 0.877332 0.5
199 1 0.376871 0.90494 0.5
16 1 0.425004 0.917686 0.5
178 1 0.479135 0.933283 0.5
110 1 0.564017 0.907416 0.5
313 1 0.625121 0.92659 0.5
259 1 0.337858 0.94415 0.5
296 1 0.389624 0.952313 0.5
123 1 0.529677 0.943785 0.5
284 1 0.585537 0.955279 0.5
111 1 0.44161 0.969514 0.5
375 1 0.495069 0.980021 0.5
129 1 0.550223 0.990699 0.5
220 1 0.630468 0.975579 0.5
211 1 0.710988 0.0120724 0.5
270 1 0.803188 0.00374723 0.5
54 1 0.912064 0.0240772 0.5
279 1 0.973042 0.0275356 0.5
158 1 0.750736 0.0445564 0.5
311 1 0.799105 0.0577346 0.5
131 1 0.855564 0.0442803 0.5
1 1 0.7153 0.0845501 0.5
57 1 0.76507 0.0953772 0.5
331 1 0.893918 0.0784536 0.5
376 1 0.949164 0.0697497 0.5
388 1 0.673455 0.128059 0.5
30 1 0.72217 0.132177 0.5
339 1 0.817643 0.104445 0.5
151 1 0.863789 0.118234 0.5
107 1 0.914989 0.121469 0.5
25 1 0.962995 0.119329 0.5
18 1 0.782661 0.146948 0.5
282 1 0.829215 0.166508 0.5
144 1 0.888283 0.164225 0.5
301 1 0.69353 0.182093 0.5
261 1 0.741478 0.185749 0.5
248 1 0.787607 0.194052 0.5
48 1 0.930125 0.194921 0.5
283 1 0.978225 0.168018 0.5
366 1 0.71074 0.228667 0.5
165 1 0.833209 0.218835 0.5
342 1 0.88406 0.221869 0.5
183 1 0.98947 0.217811 0.5
143 1 0.756466 0.243786 0.5
378 1 0.79996 0.265817 0.5
180 1 0.942006 0.241889 0.5
127 1 0.995869 0.264481 0.5
333 1 0.724081 0.283778 0.5
118 1 0.851965 0.269289 0.5
4 1 0.906279 0.285374 0.5
119 1 0.957912 0.295042 0.5
287 1 0.678063 0.310674 0.5
20 1 0.7679 0.306589 0.5
85 1 0.816158 0.312463 0.5
340 1 0.871451 0.331642 0.5
267 1 0.919794 0.327889 0.5
21 1 0.727116 0.335919 0.5
246 1 0.784185 0.355409 0.5
63 1 0.832208 0.359697 0.5
154 1 0.969345 0.340817 0.5
170 1 0.691412 0.370417 0.5
390 1 0.745113 0.386385 0.5
391 1 0.882495 0.381633 0.5
235 1 0.932498 0.388869 0.5
271 1 0.708252 0.424474 0.5
35 1 0.79284 0.403092 0.5
162 1 0.847757 0.415791 0.5
81 1 0.89366 0.430625 0.5
238 1 0.988508 0.400989 0.5
312 1 0.673267 0.464387 0.5
5 1 0.759394 0.438018 0.5
232 1 0.813601 0.450403 0.5
359 1 0.952151 0.435638 0.5
10 1 0.999102 0.451693 0.5
256 1 0.727796 0.487049 0.5
163 1 0.779069 0.492427 0.5
40 1 0.863727 0.472068 0.5
51 1 0.916171 0.472145 0.5
105 1 0.966972 0.491536 0.5
196 1 0.688266 0.515024 0.5
70 1 0.829221 0.506984 0.5
219 1 0.877728 0.519932 0.5
191 1 0.932302 0.526165 0.5
161 1 0.733961 0.537562 0.5
31 1 0.787059 0.545359 0.5
181 1 0.844672 0.553962 0.5
400 1 0.986869 0.540045 0.5
303 1 0.693304 0.573244 0.5
182 1 0.760567 0.587778 0.5
357 1 0.809226 0.589737 0.5
233 1 0.8991 0.570704 0.5
241 1 0.947604 0.583376 0.5
171 1 0.995633 0.589475 0.5
314 1 0.706088 0.621922 0.5
234 1 0.850798 0.620733 0.5
289 1 0.900166 0.621273 0.5
194 1 0.964671 0.632637 0.5
77 1 0.675314 0.657724 0.5
190 1 0.759287 0.635225 0.5
362 1 0.80594 0.645679 0.5
108 1 0.728235 0.672051 0.5
295 1 0.779028 0.690107 0.5
358 1 0.858341 0.667011 0.5
205 1 0.916885 0.676172 0.5
167 1 0.974557 0.67736 0.5
308 1 0.676124 0.710354 0.5
68 1 0.729811 0.722668 0.5
395 1 0.828723 0.714068 0.5
136 1 0.888906 0.717012 0.5
240 1 0.939118 0.722926 0.5
317 1 0.986993 0.722687 0.5
87 1 0.68362 0.758744 0.5
275 1 0.781517 0.740836 0.5
177 1 0.861557 0.755988 0.5
173 1 0.744502 0.776444 0.5
206 1 0.805795 0.782334 0.5
117 1 0.911415 0.774024 0.5
222 1 0.968592 0.768364 0.5
330 1 0.716722 0.815116 0.5
34 1 0.775396 0.816844 0.5
254 1 0.848725 0.805061 0.5
345 1 0.89381 0.822492 0.5
113 1 0.946358 0.815584 0.5
43 1 0.679856 0.846712 0.5
352 1 0.757051 0.865514 0.5
103 1 0.80629 0.857567 0.5
369 1 0.988401 0.83735 0.5
193 1 0.709013 0.886185 0.5
98 1 0.860359 0.866745 0.5
285 1 0.909074 0.869358 0.5
346 1 0.95854 0.889893 0.5
210 1 0.668254 0.913732 0.5
386 1 0.731413 0.930981 0.5
329 1 0.774208 0.910708 0.5
360 1 0.823467 0.902797 0.5
32 1 0.880057 0.912955 0.5
2 1 0.931929 0.930528 0.5
341 1 0.983697 0.932363 0.5
130 1 0.690321 0.963025 0.5
266 1 0.798648 0.951812 0.5
138 1 0.8469 0.946506 0.5
23 1 0.759428 0.982916 0.5
7 1 0.850293 0.996584 0.5
247 1 0.891573 0.973684 0.5
268 1 0.947072 0.977953 0.5
