ITEM: TIMESTEP
100000
ITEM: NUMBER OF ATOMS
400
ITEM: BOX BOUNDS pp pp pp
0.0000000000000000e+00 2.2360679774997898e+01
0.0000000000000000e+00 2.2360679774997898e+01
-5.5901699437494745e-01 5.5901699437494745e-01
ITEM: ATOMS id type xs ys zs
108 1 0.18148 0.037664 0.5
7 1 0.233759 0.177058 0.5
343 1 0.250079 0.481243 0.5
153 1 0.302697 0.214609 0.5
79 1 0.0856645 0.048646 0.5
148 1 0.0523271 0.470248 0.5
224 1 0.107224 0.468424 0.5
220 1 0.328478 0.0463681 0.5
133 1 0.300979 0.42154 0.5
219 1 0.260178 0.238667 0.5
48 1 0.158918 0.357649 0.5
306 1 0.136075 0.0447009 0.5
72 1 0.00898738 0.101045 0.5
179 1 0.0330046 0.247158 0.5
209 1 0.295157 0.083314 0.5
63 1 0.0120593 0.157546 0.5
54 1 0.240014 0.0316347 0.5
95 1 0.0824896 0.261486 0.5
50 1 0.294358 0.475281 0.5
49 1 0.0258328 0.20433 0.5
129 1 0.283803 0.0270353 0.5
375 1 0.291142 0.16885 0.5
149 1 0.0786944 0.376222 0.5
351 1 0.126458 0.188043 0.5
221 1 0.19597 0.129963 0.5
285 1 0.289917 0.274798 0.5
113 1 0.0642707 0.0923496 0.5
319 1 0.249142 0.120123 0.5
324 1 0.0997984 0.134978 0.5
302 1 0.211747 0.460989 0.5
117 1 0.151956 0.135426 0.5
92 1 0.145636 0.0870702 0.5
145 1 0.0991224 0.00825712 0.5
341 1 0.0672625 0.163341 0.5
281 1 0.231098 0.0805671 0.5
122 1 0.262566 0.391149 0.5
366 1 0.0697734 0.319229 0.5
301 1 0.118477 0.237249 0.5
211 1 0.00654185 0.482732 0.5
165 1 0.257419 0.30897 0.5
386 1 0.0257893 0.294342 0.5
156 1 0.140588 0.306171 0.5
276 1 0.174145 0.220787 0.5
69 1 0.21576 0.279554 0.5
90 1 0.0288467 0.034499 0.5
110 1 0.217123 0.218624 0.5
26 1 0.0361785 0.40726 0.5
94 1 0.0297046 0.361646 0.5
317 1 0.0705497 0.206617 0.5
134 1 0.158883 0.444414 0.5
111 1 0.294107 0.361604 0.5
86 1 0.111706 0.341881 0.5
238 1 0.21633 0.365631 0.5
204 1 0.171053 0.175904 0.5
21 1 0.185586 0.321727 0.5
368 1 0.118282 0.400339 0.5
118 1 0.215645 0.415705 0.5
213 1 0.171965 0.268527 0.5
125 1 0.0732605 0.428994 0.5
292 1 0.255772 0.437714 0.5
65 1 0.325339 0.126995 0.5
76 1 0.162225 0.401702 0.5
89 1 0.331097 0.387474 0.5
338 1 0.00647219 0.438452 0.5
186 1 0.213639 0.57163 0.5
43 1 0.0900176 0.512498 0.5
135 1 0.198155 0.996209 0.5
14 1 0.166546 0.552932 0.5
230 1 0.233909 0.525621 0.5
236 1 0.128426 0.923658 0.5
249 1 0.0318021 0.650563 0.5
64 1 0.0500679 0.556526 0.5
11 1 0.134858 0.504979 0.5
308 1 0.0592516 0.827645 0.5
225 1 0.299142 0.915001 0.5
10 1 0.27673 0.562713 0.5
399 1 0.255854 0.928874 0.5
42 1 0.043676 0.601787 0.5
328 1 0.19438 0.611306 0.5
397 1 0.241812 0.707253 0.5
75 1 0.0674565 0.718819 0.5
107 1 0.0916276 0.595834 0.5
105 1 0.208413 0.673911 0.5
380 1 0.218691 0.956336 0.5
272 1 0.111847 0.549591 0.5
287 1 0.0976563 0.686315 0.5
184 1 0.139909 0.607839 0.5
303 1 0.146598 0.660996 0.5
189 1 0.108055 0.737378 0.5
83 1 0.138952 0.709081 0.5
71 1 0.310038 0.605913 0.5
98 1 0.196061 0.783154 0.5
280 1 0.0838406 0.642084 0.5
81 1 0.0137024 0.753961 0.5
259 1 0.271275 0.756241 0.5
290 1 0.246559 0.805279 0.5
13 1 0.0273565 0.797896 0.5
305 1 0.0589724 0.984257 0.5
17 1 0.285114 0.648606 0.5
73 1 0.161742 0.954396 0.5
252 1 0.290087 0.982609 0.5
257 1 0.0840319 0.925746 0.5
19 1 0.330327 0.650787 0.5
164 1 0.231346 0.847573 0.5
173 1 0.0428803 0.87797 0.5
60 1 0.150256 0.804828 0.5
223 1 0.317862 0.709123 0.5
62 1 0.0220835 0.709956 0.5
275 1 0.33052 1.00012 0.5
356 1 0.0636321 0.762977 0.5
233 1 0.249114 0.623272 0.5
311 1 0.316674 0.542626 0.5
222 1 0.0982259 0.791392 0.5
270 1 0.147244 0.758584 0.5
197 1 0.227561 0.752624 0.5
185 1 0.187715 0.731886 0.5
112 1 0.00581396 0.851765 0.5
261 1 0.0935668 0.876866 0.5
365 1 0.117197 0.838128 0.5
330 1 0.0426449 0.942837 0.5
207 1 0.208295 0.893664 0.5
20 1 0.177741 0.850256 0.5
378 1 0.248363 0.988905 0.5
254 1 0.27973 0.85927 0.5
300 1 0.146067 0.881073 0.5
390 1 0.116235 0.967351 0.5
202 1 0.277232 0.520125 0.5
349 1 0.313576 0.773691 0.5
333 1 0.19242 0.514946 0.5
39 1 0.308698 0.81891 0.5
360 1 0.0395345 0.513999 0.5
51 1 0.146079 0.999646 0.5
315 1 0.326238 0.874153 0.5
344 1 0.00336693 0.970431 0.5
172 1 0.332988 0.501996 0.5
30 1 0.402146 0.0924838 0.5
77 1 0.617659 0.0420788 0.5
350 1 0.649418 0.377694 0.5
361 1 0.448748 0.365074 0.5
146 1 0.636498 0.0826278 0.5
243 1 0.415643 0.446127 0.5
394 1 0.550751 0.0320422 0.5
183 1 0.494646 0.0379455 0.5
137 1 0.383839 0.400414 0.5
191 1 0.464353 0.0706421 0.5
180 1 0.346494 0.428643 0.5
345 1 0.37535 0.483323 0.5
293 1 0.341843 0.271174 0.5
47 1 0.393419 0.18929 0.5
144 1 0.450985 0.113519 0.5
279 1 0.458178 0.188432 0.5
283 1 0.515358 0.0857937 0.5
232 1 0.35055 0.0835018 0.5
398 1 0.511761 0.180216 0.5
199 1 0.375282 0.136662 0.5
2 1 0.479119 0.150033 0.5
346 1 0.528656 0.135927 0.5
33 1 0.516098 0.483086 0.5
44 1 0.421937 0.158639 0.5
5 1 0.575698 0.0672941 0.5
235 1 0.376294 0.242147 0.5
66 1 0.583788 0.233104 0.5
40 1 0.593949 0.282595 0.5
242 1 0.631189 0.145338 0.5
55 1 0.577246 0.409271 0.5
379 1 0.587431 0.135659 0.5
312 1 0.57305 0.185229 0.5
157 1 0.497967 0.242525 0.5
353 1 0.614071 0.472239 0.5
278 1 0.452352 0.407178 0.5
31 1 0.424862 0.217573 0.5
100 1 0.512701 0.334278 0.5
115 1 0.543177 0.214087 0.5
57 1 0.549268 0.270156 0.5
264 1 0.6252 0.221914 0.5
294 1 0.33611 0.323063 0.5
151 1 0.370535 0.357731 0.5
298 1 0.520491 0.437177 0.5
163 1 0.466657 0.27612 0.5
35 1 0.606851 0.331937 0.5
393 1 0.509128 0.29009 0.5
22 1 0.65921 0.449085 0.5
206 1 0.494603 0.389538 0.5
248 1 0.373051 0.0340134 0.5
251 1 0.416737 0.259072 0.5
388 1 0.461093 0.447129 0.5
93 1 0.60627 0.373839 0.5
138 1 0.346778 0.185062 0.5
161 1 0.440717 0.321153 0.5
6 1 0.620178 0.417746 0.5
97 1 0.561755 0.313979 0.5
171 1 0.563194 0.449538 0.5
169 1 0.638385 0.293058 0.5
182 1 0.38702 0.299499 0.5
320 1 0.432515 0.041725 0.5
258 1 0.548985 0.374683 0.5
304 1 0.572889 0.499869 0.5
362 1 0.487713 0.946892 0.5
269 1 0.484833 0.57277 0.5
53 1 0.353944 0.757624 0.5
262 1 0.594739 0.995136 0.5
228 1 0.636509 0.550629 0.5
354 1 0.382079 0.721497 0.5
297 1 0.353625 0.576668 0.5
152 1 0.539809 0.935674 0.5
245 1 0.480188 0.516867 0.5
198 1 0.528021 0.535687 0.5
227 1 0.379333 0.543616 0.5
1 1 0.442322 0.73682 0.5
160 1 0.434442 0.622773 0.5
309 1 0.565899 0.622623 0.5
326 1 0.412579 0.872314 0.5
334 1 0.444589 0.556124 0.5
167 1 0.531641 0.652077 0.5
168 1 0.604346 0.708569 0.5
234 1 0.575803 0.912089 0.5
176 1 0.440642 0.670047 0.5
212 1 0.550921 0.740492 0.5
271 1 0.59401 0.53581 0.5
45 1 0.486447 0.652084 0.5
387 1 0.552957 0.575709 0.5
12 1 0.651059 0.981145 0.5
395 1 0.600527 0.584346 0.5
85 1 0.628246 0.62377 0.5
255 1 0.350878 0.802205 0.5
119 1 0.600847 0.754944 0.5
376 1 0.511879 0.605908 0.5
367 1 0.456568 0.797611 0.5
385 1 0.560386 0.82902 0.5
132 1 0.558753 0.697441 0.5
193 1 0.615137 0.952257 0.5
32 1 0.344987 0.945304 0.5
205 1 0.503519 0.804465 0.5
260 1 0.499894 0.694583 0.5
121 1 0.605012 0.663115 0.5
177 1 0.391012 0.937841 0.5
139 1 0.591855 0.870329 0.5
74 1 0.506474 0.852153 0.5
150 1 0.65331 0.722336 0.5
274 1 0.645273 0.766835 0.5
78 1 0.622938 0.90841 0.5
91 1 0.450798 0.842152 0.5
226 1 0.653129 0.807775 0.5
52 1 0.396135 0.775625 0.5
27 1 0.406437 0.815992 0.5
36 1 0.397893 0.601184 0.5
284 1 0.552418 0.787832 0.5
321 1 0.441781 0.914815 0.5
106 1 0.430338 0.5122 0.5
337 1 0.482902 0.74894 0.5
192 1 0.481446 0.994249 0.5
372 1 0.539284 0.887521 0.5
266 1 0.371785 0.889038 0.5
103 1 0.638707 0.867399 0.5
29 1 0.651955 0.504416 0.5
314 1 0.60913 0.820782 0.5
296 1 0.378342 0.986553 0.5
400 1 0.484118 0.899581 0.5
196 1 0.3775 0.659777 0.5
128 1 0.420178 0.981604 0.5
256 1 0.666107 0.588676 0.5
8 1 0.660643 0.659065 0.5
313 1 0.915686 0.436757 0.5
329 1 0.865049 0.0857655 0.5
188 1 0.756845 0.115303 0.5
68 1 0.920159 0.260075 0.5
158 1 0.703892 0.277859 0.5
391 1 0.825233 0.181397 0.5
322 1 0.754863 0.276011 0.5
371 1 0.888437 0.129476 0.5
99 1 0.71612 0.136926 0.5
291 1 0.772568 0.0622532 0.5
162 1 0.996666 0.384349 0.5
88 1 0.745774 0.481389 0.5
123 1 0.729949 0.0519091 0.5
357 1 0.92206 0.155924 0.5
175 1 0.817815 0.071517 0.5
170 1 0.974684 0.00403877 0.5
237 1 0.77772 0.156288 0.5
382 1 0.844605 0.139054 0.5
373 1 0.946981 0.2202 0.5
208 1 0.677973 0.155806 0.5
120 1 0.904188 0.340947 0.5
46 1 0.715695 0.178013 0.5
339 1 0.836562 0.224836 0.5
340 1 0.893047 0.220478 0.5
331 1 0.675595 0.243933 0.5
18 1 0.76304 0.195346 0.5
358 1 0.788818 0.235626 0.5
25 1 0.744045 0.394882 0.5
3 1 0.724873 0.243188 0.5
102 1 0.815861 0.358909 0.5
56 1 0.862436 0.260523 0.5
267 1 0.869121 0.179725 0.5
218 1 0.803637 0.114713 0.5
332 1 0.797589 0.45197 0.5
59 1 0.959092 0.447337 0.5
131 1 0.790605 0.303933 0.5
116 1 0.779362 0.0186174 0.5
15 1 0.824853 0.498917 0.5
4 1 0.786713 0.408912 0.5
127 1 0.832291 0.0241151 0.5
289 1 0.706375 0.450688 0.5
126 1 0.747445 0.439199 0.5
38 1 0.72221 0.322035 0.5
201 1 0.900795 0.385011 0.5
229 1 0.977041 0.341087 0.5
96 1 0.765296 0.357011 0.5
250 1 0.837896 0.30306 0.5
16 1 0.955159 0.403289 0.5
155 1 0.885477 0.301981 0.5
348 1 0.863666 0.359053 0.5
109 1 0.97558 0.0508939 0.5
216 1 0.829795 0.400442 0.5
364 1 0.85624 0.466923 0.5
101 1 0.674393 0.320125 0.5
231 1 0.933836 0.0393219 0.5
288 1 0.868234 0.424536 0.5
310 1 0.965776 0.0934958 0.5
323 1 0.681373 0.0401912 0.5
277 1 0.882528 0.0377646 0.5
124 1 0.710303 0.365216 0.5
253 1 0.694088 0.408768 0.5
187 1 0.908926 0.0762758 0.5
268 1 0.675991 0.198915 0.5
295 1 0.971817 0.139957 0.5
190 1 0.972678 0.18253 0.5
24 1 0.970717 0.290932 0.5
352 1 0.699881 0.0794737 0.5
34 1 0.9392 0.48748 0.5
181 1 0.700801 0.494385 0.5
327 1 0.668832 0.114006 0.5
246 1 0.743113 0.576105 0.5
67 1 0.955239 0.86101 0.5
23 1 0.693793 0.748013 0.5
37 1 0.702034 0.554042 0.5
370 1 0.905678 0.619885 0.5
377 1 0.754989 0.701471 0.5
143 1 0.879465 0.586821 0.5
247 1 0.961589 0.533092 0.5
335 1 0.675683 0.843391 0.5
80 1 0.704243 0.610916 0.5
299 1 0.822088 0.642588 0.5
347 1 0.710092 0.654326 0.5
141 1 0.749593 0.636 0.5
381 1 0.788984 0.608991 0.5
244 1 0.939156 0.566862 0.5
174 1 0.807407 0.692474 0.5
369 1 0.828024 0.738373 0.5
61 1 0.726047 0.894652 0.5
396 1 0.830017 0.580165 0.5
384 1 0.700589 0.702243 0.5
282 1 0.78879 0.768589 0.5
70 1 0.865974 0.655078 0.5
392 1 0.962187 0.605045 0.5
82 1 0.805875 0.5437 0.5
114 1 0.943748 0.647101 0.5
140 1 0.962034 0.706401 0.5
87 1 0.852248 0.855184 0.5
215 1 0.822016 0.88613 0.5
265 1 0.791192 0.827466 0.5
154 1 0.91682 0.69252 0.5
136 1 0.930573 0.735433 0.5
342 1 0.770035 0.867178 0.5
239 1 0.805458 0.939202 0.5
159 1 0.868674 0.797893 0.5
214 1 0.870327 0.703555 0.5
383 1 0.936404 0.795896 0.5
389 1 0.822277 0.796687 0.5
286 1 0.971754 0.818484 0.5
41 1 0.878225 0.745885 0.5
240 1 0.740949 0.747718 0.5
58 1 0.818651 0.982796 0.5
217 1 0.849355 0.943059 0.5
147 1 0.753119 0.795369 0.5
166 1 0.771802 0.911848 0.5
316 1 0.706421 0.799167 0.5
359 1 0.870175 0.903821 0.5
200 1 0.919405 0.83863 0.5
195 1 0.971903 0.755194 0.5
104 1 0.942644 0.969823 0.5
210 1 0.849879 0.536637 0.5
28 1 0.894897 0.547169 0.5
307 1 0.741394 0.945601 0.5
194 1 0.868733 0.991137 0.5
318 1 0.776601 0.511046 0.5
142 1 0.911496 0.999189 0.5
203 1 0.918425 0.887065 0.5
374 1 0.733123 0.522793 0.5
241 1 0.728312 0.848311 0.5
355 1 0.696593 0.934946 0.5
325 1 0.90874 0.944917 0.5
9 1 0.965679 0.92871 0.5
363 1 0.676503 0.888803 0.5
263 1 0.99416 0.678324 0.5
130 1 0.77428 0.971753 0.5
178 1 0.995891 0.568906 0.5
84 1 0.989354 0.892514 0.5
273 1 0.716319 0.988684 0.5
336 1 0.888364 0.505428 0.5
