ITEM: TIMESTEP
100000
ITEM: NUMBER OF ATOMS
400
ITEM: BOX BOUNDS pp pp pp
0.0000000000000000e+00 2.5819888974716111e+01
0.0000000000000000e+00 2.5819888974716111e+01
-6.4549722436790280e-01 6.4549722436790280e-01
ITEM: ATOMS id type xs ys zs
138 1 0.0746393 0.457859 0.5
296 1 0.310683 0.298674 0.5
358 1 0.0772038 0.0721846 0.5
98 1 0.217 0.198824 0.5
397 1 0.141064 0.0122936 0.5
124 1 0.153775 0.319554 0.5
205 1 0.195239 0.0160025 0.5
202 1 0.279125 0.27161 0.5
133 1 0.267085 0.056979 0.5
300 1 0.0418826 0.0802303 0.5
165 1 0.298464 0.0285692 0.5
101 1 0.329554 0.262746 0.5
339 1 0.304906 0.103076 0.5
385 1 0.244039 0.0906182 0.5
243 1 0.200181 0.0963752 0.5
333 1 0.185961 0.485455 0.5
56 1 0.0104435 0.289457 0.5
308 1 0.303984 0.344925 0.5
118 1 0.0963316 0.108034 0.5
135 1 0.205545 0.251609 0.5
167 1 0.273322 0.317884 0.5
271 1 0.194064 0.171709 0.5
285 1 0.191782 0.0579444 0.5
269 1 0.108333 0.0489231 0.5
129 1 0.083244 0.163032 0.5
298 1 0.318131 0.160469 0.5
263 1 0.136078 0.0897676 0.5
248 1 0.0634533 0.0366044 0.5
274 1 0.155442 0.044816 0.5
230 1 0.179588 0.136852 0.5
144 1 0.131206 0.155069 0.5
231 1 0.178178 0.207874 0.5
218 1 0.112791 0.320446 0.5
65 1 0.227417 0.0412649 0.5
368 1 0.290978 0.401617 0.5
233 1 0.0218405 0.142515 0.5
27 1 0.079699 0.297057 0.5
131 1 0.116009 0.19184 0.5
227 1 0.0696796 0.499487 0.5
379 1 0.0450223 0.310024 0.5
288 1 0.0271472 0.0277743 0.5
337 1 0.173535 0.450426 0.5
240 1 0.0149372 0.195519 0.5
35 1 0.294347 0.236449 0.5
46 1 0.0721201 0.345338 0.5
79 1 0.0258491 0.250193 0.5
342 1 0.299726 0.456411 0.5
57 1 0.0501464 0.424729 0.5
150 1 0.222684 0.386828 0.5
136 1 0.215018 0.351561 0.5
267 1 0.139154 0.227909 0.5
284 1 0.0577551 0.194046 0.5
319 1 0.251487 0.239524 0.5
257 1 0.235288 0.27556 0.5
145 1 0.147258 0.377381 0.5
371 1 0.214905 0.31114 0.5
262 1 0.120675 0.412331 0.5
249 1 0.0410227 0.37925 0.5
16 1 0.184918 0.378652 0.5
47 1 0.112607 0.362292 0.5
5 1 0.137275 0.447661 0.5
225 1 0.212199 0.457424 0.5
19 1 0.182661 0.286439 0.5
297 1 0.251696 0.44891 0.5
159 1 0.281377 0.173217 0.5
210 1 0.332477 0.196287 0.5
4 1 0.00327246 0.375625 0.5
192 1 0.102873 0.0009177 0.5
191 1 0.0511718 0.891384 0.5
75 1 0.0799966 0.633332 0.5
348 1 0.182288 0.975458 0.5
214 1 0.0147594 0.915562 0.5
295 1 0.0690772 0.692318 0.5
258 1 0.167933 0.588218 0.5
76 1 0.232217 0.870789 0.5
66 1 0.175295 0.802831 0.5
33 1 0.149325 0.555546 0.5
203 1 0.26012 0.572913 0.5
32 1 0.278241 0.505138 0.5
329 1 0.119997 0.591611 0.5
177 1 0.318277 0.515168 0.5
86 1 0.0735452 0.568799 0.5
54 1 0.0294616 0.713788 0.5
275 1 0.0907616 0.948063 0.5
381 1 0.0396293 0.625059 0.5
120 1 0.18785 0.546652 0.5
247 1 0.182333 0.694257 0.5
63 1 0.24998 0.659167 0.5
45 1 0.250579 0.531091 0.5
292 1 0.0854525 0.775476 0.5
359 1 0.249088 0.739902 0.5
160 1 0.135933 0.918521 0.5
137 1 0.0312239 0.842745 0.5
306 1 0.304632 0.56632 0.5
321 1 0.333973 0.656443 0.5
146 1 0.099272 0.666695 0.5
149 1 0.156465 0.664313 0.5
363 1 0.194688 0.89899 0.5
125 1 0.045034 0.806589 0.5
193 1 0.142384 0.974153 0.5
373 1 0.0303591 0.767155 0.5
336 1 0.271335 0.885737 0.5
310 1 0.221959 0.706706 0.5
352 1 0.250619 0.814166 0.5
36 1 0.213639 0.606426 0.5
29 1 0.0936211 0.844187 0.5
43 1 0.320938 0.706656 0.5
320 1 0.250757 0.618536 0.5
37 1 0.214949 0.828288 0.5
93 1 0.0734839 0.739243 0.5
212 1 0.0589106 0.98814 0.5
357 1 0.172936 0.841672 0.5
60 1 0.270681 0.769603 0.5
64 1 0.32328 0.841366 0.5
183 1 0.21971 0.774196 0.5
126 1 0.280872 0.719702 0.5
67 1 0.0899705 0.891308 0.5
395 1 0.291712 0.80912 0.5
219 1 0.0240772 0.523334 0.5
72 1 0.234701 0.944584 0.5
354 1 0.138676 0.873856 0.5
42 1 0.119695 0.786645 0.5
89 1 0.308399 0.982818 0.5
31 1 0.287581 0.952385 0.5
171 1 0.00922208 0.680191 0.5
172 1 0.185929 0.637515 0.5
152 1 0.167356 0.76055 0.5
81 1 0.226995 0.497954 0.5
367 1 0.03332 0.572195 0.5
163 1 0.00619594 0.966857 0.5
100 1 0.314955 0.886093 0.5
25 1 0.416774 0.123944 0.5
228 1 0.568497 0.0469861 0.5
335 1 0.53506 0.364324 0.5
20 1 0.540143 0.265717 0.5
44 1 0.593198 0.215683 0.5
282 1 0.476038 0.0898561 0.5
344 1 0.568336 0.38953 0.5
82 1 0.515732 0.0891463 0.5
325 1 0.418231 0.0657329 0.5
96 1 0.657829 0.457301 0.5
268 1 0.534951 0.123481 0.5
291 1 0.380791 0.113713 0.5
272 1 0.605711 0.0410826 0.5
3 1 0.556265 0.470902 0.5
107 1 0.642687 0.181207 0.5
338 1 0.563606 0.0832994 0.5
11 1 0.347894 0.012326 0.5
85 1 0.60468 0.174334 0.5
84 1 0.365812 0.229079 0.5
277 1 0.359982 0.315228 0.5
396 1 0.660784 0.298197 0.5
250 1 0.509619 0.155251 0.5
77 1 0.569712 0.139908 0.5
281 1 0.368489 0.0597369 0.5
327 1 0.62523 0.319177 0.5
311 1 0.389089 0.269831 0.5
330 1 0.595395 0.253256 0.5
390 1 0.46692 0.193778 0.5
391 1 0.545639 0.214923 0.5
280 1 0.404192 0.21301 0.5
195 1 0.42012 0.162934 0.5
301 1 0.50491 0.223827 0.5
314 1 0.561971 0.17945 0.5
286 1 0.623677 0.474465 0.5
185 1 0.378605 0.457261 0.5
169 1 0.636323 0.0640484 0.5
353 1 0.651969 0.257461 0.5
158 1 0.391686 0.0250338 0.5
139 1 0.437454 0.484816 0.5
22 1 0.489367 0.0319131 0.5
161 1 0.492764 0.272511 0.5
59 1 0.426944 0.330932 0.5
153 1 0.472122 0.31045 0.5
238 1 0.53172 0.308993 0.5
392 1 0.476634 0.456233 0.5
95 1 0.449081 0.263266 0.5
369 1 0.339213 0.420147 0.5
69 1 0.439922 0.227106 0.5
15 1 0.60159 0.434016 0.5
234 1 0.382796 0.370613 0.5
254 1 0.425101 0.406601 0.5
334 1 0.437451 0.445634 0.5
117 1 0.500727 0.3457 0.5
194 1 0.474693 0.371896 0.5
253 1 0.609177 0.391892 0.5
376 1 0.638484 0.121551 0.5
364 1 0.573558 0.295055 0.5
116 1 0.342805 0.122717 0.5
132 1 0.637346 0.418985 0.5
13 1 0.36591 0.16672 0.5
273 1 0.607029 0.0923006 0.5
6 1 0.525327 0.41747 0.5
309 1 0.527124 0.0412069 0.5
221 1 0.33964 0.472087 0.5
201 1 0.340416 0.0837621 0.5
293 1 0.432158 0.0163419 0.5
53 1 0.348856 0.359155 0.5
40 1 0.590125 0.498755 0.5
80 1 0.358329 0.713405 0.5
245 1 0.642405 0.597359 0.5
198 1 0.660718 0.758086 0.5
168 1 0.461346 0.526554 0.5
287 1 0.473172 0.56939 0.5
372 1 0.577277 0.791001 0.5
378 1 0.335133 0.773213 0.5
10 1 0.373985 0.67881 0.5
119 1 0.406782 0.720978 0.5
103 1 0.412209 0.515715 0.5
143 1 0.468711 0.62931 0.5
232 1 0.440865 0.923714 0.5
188 1 0.350021 0.918741 0.5
349 1 0.369036 0.956236 0.5
255 1 0.643019 0.654122 0.5
380 1 0.54788 0.91718 0.5
197 1 0.595662 0.592024 0.5
239 1 0.527776 0.518423 0.5
251 1 0.419528 0.667519 0.5
266 1 0.532814 0.635361 0.5
173 1 0.518153 0.714189 0.5
94 1 0.421601 0.876141 0.5
261 1 0.558435 0.550685 0.5
175 1 0.561684 0.749276 0.5
176 1 0.512375 0.60016 0.5
207 1 0.380563 0.868533 0.5
52 1 0.585658 0.660139 0.5
399 1 0.471645 0.666269 0.5
223 1 0.606895 0.827012 0.5
115 1 0.389365 0.555411 0.5
78 1 0.566526 0.693776 0.5
312 1 0.443245 0.707616 0.5
328 1 0.639364 0.559549 0.5
361 1 0.371965 0.513525 0.5
260 1 0.528847 0.765383 0.5
389 1 0.617743 0.687383 0.5
276 1 0.445665 0.975023 0.5
204 1 0.376232 0.748561 0.5
237 1 0.467015 0.789822 0.5
366 1 0.61842 0.742346 0.5
181 1 0.548033 0.821223 0.5
130 1 0.502508 0.979159 0.5
156 1 0.602888 0.93945 0.5
355 1 0.480025 0.719604 0.5
307 1 0.640442 0.862488 0.5
387 1 0.429194 0.836989 0.5
1 1 0.428663 0.780614 0.5
279 1 0.515831 0.854534 0.5
316 1 0.514844 0.937137 0.5
114 1 0.380838 0.642214 0.5
302 1 0.510741 0.552984 0.5
104 1 0.35052 0.813905 0.5
21 1 0.643073 0.93978 0.5
49 1 0.510078 0.799575 0.5
256 1 0.626267 0.906 0.5
304 1 0.477643 0.948439 0.5
382 1 0.394123 0.799882 0.5
393 1 0.391693 0.920649 0.5
347 1 0.404216 0.597352 0.5
259 1 0.55579 0.591445 0.5
39 1 0.598673 0.984798 0.5
23 1 0.648762 0.521989 0.5
216 1 0.343598 0.606189 0.5
200 1 0.665147 0.795854 0.5
318 1 0.546655 0.997819 0.5
343 1 0.938211 0.0552319 0.5
332 1 0.68786 0.341247 0.5
341 1 0.791621 0.268333 0.5
128 1 0.860971 0.110462 0.5
14 1 0.95169 0.139566 0.5
48 1 0.695641 0.210692 0.5
110 1 0.874383 0.463369 0.5
2 1 0.885982 0.199249 0.5
73 1 0.785039 0.0664932 0.5
87 1 0.783619 0.120683 0.5
196 1 0.929257 0.312614 0.5
70 1 0.709636 0.125176 0.5
74 1 0.761798 0.0110089 0.5
270 1 0.787771 0.318393 0.5
164 1 0.885085 0.148286 0.5
99 1 0.966465 0.396698 0.5
264 1 0.793901 0.158954 0.5
142 1 0.944318 0.265905 0.5
62 1 0.823467 0.0820181 0.5
179 1 0.837454 0.466898 0.5
28 1 0.722831 0.3051 0.5
109 1 0.900253 0.25472 0.5
174 1 0.980941 0.169416 0.5
377 1 0.915717 0.1739 0.5
394 1 0.880938 0.414413 0.5
220 1 0.881468 0.364071 0.5
299 1 0.782092 0.204225 0.5
374 1 0.877693 0.0708495 0.5
134 1 0.764919 0.35597 0.5
148 1 0.742813 0.251149 0.5
189 1 0.771316 0.478605 0.5
370 1 0.720603 0.0279941 0.5
92 1 0.688454 0.261886 0.5
151 1 0.892351 0.028533 0.5
388 1 0.966287 0.212031 0.5
26 1 0.685693 0.410133 0.5
9 1 0.970789 0.291764 0.5
154 1 0.939347 0.00964474 0.5
365 1 0.832053 0.349047 0.5
400 1 0.829065 0.279522 0.5
386 1 0.927529 0.457438 0.5
17 1 0.843377 0.156612 0.5
236 1 0.974405 0.0757655 0.5
315 1 0.749827 0.178728 0.5
140 1 0.738277 0.0884944 0.5
83 1 0.942567 0.350397 0.5
305 1 0.966457 0.465151 0.5
91 1 0.797485 0.390093 0.5
222 1 0.883393 0.323919 0.5
123 1 0.720195 0.361153 0.5
24 1 0.703672 0.496535 0.5
326 1 0.992854 0.109373 0.5
217 1 0.927629 0.398757 0.5
375 1 0.83935 0.197646 0.5
71 1 0.824494 0.119295 0.5
111 1 0.720499 0.422772 0.5
346 1 0.846944 0.234291 0.5
170 1 0.992058 0.331899 0.5
166 1 0.987626 0.240953 0.5
68 1 0.915579 0.117583 0.5
241 1 0.808391 0.493586 0.5
331 1 0.75623 0.412829 0.5
199 1 0.805961 0.428753 0.5
215 1 0.691091 0.173396 0.5
242 1 0.996859 0.424015 0.5
162 1 0.675336 0.092608 0.5
18 1 0.708929 0.0662506 0.5
340 1 0.810071 0.0162073 0.5
322 1 0.666751 0.378113 0.5
283 1 0.927197 0.561778 0.5
384 1 0.845256 0.77735 0.5
190 1 0.942278 0.601933 0.5
121 1 0.689676 0.901528 0.5
55 1 0.826359 0.640516 0.5
226 1 0.763031 0.669158 0.5
244 1 0.892824 0.580711 0.5
265 1 0.890299 0.767279 0.5
155 1 0.726884 0.984686 0.5
323 1 0.971498 0.662841 0.5
211 1 1.00016 0.628058 0.5
41 1 0.907126 0.642436 0.5
102 1 0.720463 0.798792 0.5
38 1 0.844048 0.721221 0.5
351 1 0.680428 0.722607 0.5
362 1 0.79888 0.728038 0.5
398 1 0.985159 0.552826 0.5
360 1 0.982537 0.593598 0.5
313 1 0.725116 0.630078 0.5
108 1 0.861867 0.513498 0.5
50 1 0.752511 0.836213 0.5
12 1 0.754771 0.752079 0.5
294 1 0.834624 0.545107 0.5
324 1 0.8524 0.972009 0.5
112 1 0.805031 0.819313 0.5
187 1 0.687899 0.546111 0.5
252 1 0.770841 0.872649 0.5
209 1 0.714796 0.754075 0.5
147 1 0.969359 0.990285 0.5
383 1 0.715642 0.864662 0.5
8 1 0.939289 0.746513 0.5
184 1 0.771511 0.796043 0.5
113 1 0.925137 0.914414 0.5
235 1 0.864061 0.644783 0.5
246 1 0.785433 0.974155 0.5
224 1 0.97965 0.906397 0.5
186 1 0.943518 0.705092 0.5
7 1 0.893629 0.700414 0.5
206 1 0.741934 0.5757 0.5
34 1 0.900142 0.886727 0.5
97 1 0.725535 0.685371 0.5
106 1 0.786679 0.591031 0.5
290 1 0.960389 0.939262 0.5
30 1 0.875953 0.828748 0.5
180 1 0.685597 0.592504 0.5
278 1 0.685647 0.948145 0.5
229 1 0.893139 0.986755 0.5
350 1 0.878142 0.938462 0.5
88 1 0.763084 0.625476 0.5
51 1 0.98439 0.508086 0.5
182 1 0.851744 0.862882 0.5
105 1 0.977387 0.727532 0.5
317 1 0.787823 0.931675 0.5
141 1 0.911537 0.814897 0.5
178 1 0.819149 0.6933 0.5
213 1 0.95759 0.816696 0.5
289 1 0.846008 0.608894 0.5
61 1 0.809985 0.887442 0.5
356 1 0.742425 0.528955 0.5
303 1 0.887594 0.540628 0.5
345 1 0.993116 0.775786 0.5
208 1 0.743444 0.949451 0.5
122 1 0.996315 0.860912 0.5
58 1 0.687494 0.83746 0.5
157 1 0.691345 0.668566 0.5
127 1 0.689324 0.998299 0.5
90 1 0.926305 0.508445 0.5
