ITEM: TIMESTEP
100000
ITEM: NUMBER OF ATOMS
2048
ITEM: BOX BOUNDS pp pp pp
0.0000000000000000e+00 1.3436769531060058e+01
0.0000000000000000e+00 1.3436769531060058e+01
0.0000000000000000e+00 1.3436769531060058e+01
ITEM: ATOMS id type xs ys zs
341 1 0.0095544 0.120768 0.231648
689 1 0.00102911 0.400668 0.257521
1682 1 0.224975 0.509305 0.329409
668 1 0.291895 0.937372 0.0243675
180 1 0.444881 0.677642 0.316158
351 1 0.392045 0.124798 0.0550622
1545 1 0.0274181 0.104936 0.307547
1868 1 0.275772 0.0620674 0.118877
775 1 0.0917044 0.81302 0.206076
1486 1 0.243205 0.855956 0.154029
236 1 0.107266 0.165389 0.265282
897 1 0.366037 0.376065 0.277193
442 1 0.496291 0.792398 0.0183404
139 1 0.345242 0.329141 0.0841846
1955 1 0.0891634 0.954441 0.0161103
978 1 0.0704344 0.649738 0.311663
287 1 0.295874 0.8803 0.279645
1237 1 0.224419 0.886921 0.0545037
123 1 0.0516541 0.685402 0.0246275
1124 1 0.375453 0.177165 0.187841
29 1 0.202146 0.0565747 0.175871
1138 1 0.339491 0.225971 0.136008
2009 1 0.295148 0.515811 0.10316
1939 1 0.380412 0.674364 0.078406
115 1 0.0156479 0.716931 0.229944
649 1 0.130522 0.354259 0.0788789
449 1 0.0906149 0.882999 0.145149
1471 1 0.383847 0.256715 0.0838673
1690 1 0.293974 0.566094 0.164137
1544 1 0.0955771 0.368015 0.147064
40 1 0.135104 0.756231 0.22059
918 1 0.0448514 0.47432 0.205509
1562 1 0.153036 0.671171 0.124184
543 1 0.318072 0.263372 0.0478337
1332 1 0.0728887 0.82762 0.281666
1358 1 0.453764 0.550744 0.0474821
1252 1 0.434657 0.652709 0.0158083
1222 1 0.460214 0.388737 0.0795828
1816 1 0.0236635 0.739786 0.305087
410 1 0.285556 0.598678 0.0939203
1030 1 0.361767 0.881417 0.326914
401 1 0.326029 0.369261 0.0278873
134 1 0.482119 0.398959 0.19741
38 1 0.419897 0.054297 0.260921
947 1 0.116584 0.743065 0.0949909
717 1 0.362332 0.720248 0.250625
1283 1 0.457098 0.267024 0.0435379
578 1 0.368979 0.0870036 0.322543
2019 1 0.112463 0.674619 0.0671733
646 1 0.149862 0.877601 0.055096
1626 1 0.266933 0.801696 0.0438807
1489 1 0.166102 0.526363 0.0873061
585 1 0.129042 0.0672755 0.183835
1975 1 0.231247 0.412494 0.100272
1970 1 0.295644 0.867191 0.106054
1965 1 0.162284 0.103003 0.109719
1574 1 0.342232 0.763334 0.19317
207 1 0.210851 0.325906 0.0878809
1710 1 0.334977 0.557702 0.0543378
1367 1 0.363724 0.501034 0.100923
1277 1 0.152884 0.221126 0.311609
1031 1 0.361972 0.592458 0.307453
211 1 0.487807 0.320138 0.0925873
1840 1 0.461724 0.0616015 0.191029
719 1 0.258273 0.261891 0.0988306
1495 1 0.346201 0.199258 0.0477942
2039 1 0.0462774 0.624174 0.0772663
1564 1 0.239853 0.31993 0.185864
1619 1 0.0182411 0.283717 0.209777
1924 1 0.457219 0.260996 0.271711
1917 1 0.0322372 0.236786 0.154808
1102 1 0.347942 0.731329 0.0402379
1412 1 0.0969665 0.290674 0.0851888
842 1 0.31226 0.325583 0.152
723 1 0.411715 0.187019 0.118333
815 1 0.316168 0.464243 0.204076
1033 1 0.355419 0.586345 0.11517
2020 1 0.159562 0.328735 0.181876
355 1 0.303869 0.387926 0.0955066
249 1 0.173574 0.290018 0.302946
2012 1 0.470481 0.788498 0.103357
318 1 0.0908099 0.209387 0.115203
557 1 0.037053 0.406765 0.175851
1163 1 0.362812 0.885227 0.180842
568 1 0.0324128 0.27144 0.0590274
1228 1 0.00105701 0.61935 0.0148501
1664 1 0.464998 0.100665 0.113193
276 1 0.419703 0.603073 0.084383
772 1 0.307924 0.677355 0.0701083
1633 1 0.488182 0.751505 0.184033
1945 1 0.402138 0.982597 0.227675
614 1 0.114157 0.674807 0.197289
1781 1 0.33914 0.00729009 0.307192
1382 1 0.0266576 0.0453678 0.0653455
343 1 0.238185 0.515365 0.15906
1188 1 0.302832 0.639195 0.159046
447 1 0.104623 0.813577 0.0798279
1112 1 0.298163 0.960973 0.253453
106 1 0.0587583 0.348328 0.255601
1164 1 0.457117 0.631086 0.214685
500 1 0.0356897 0.690982 0.102019
14 1 0.368286 0.435275 0.00453836
1992 1 0.444973 0.367564 0.27919
736 1 0.0644797 0.134802 0.091054
972 1 0.230469 0.98095 0.169058
1881 1 0.169959 0.859437 0.135997
860 1 0.131432 0.393175 0.00590839
990 1 0.452848 0.13152 0.181327
461 1 0.042015 0.876669 0.230586
104 1 0.194533 0.704569 0.00786339
116 1 0.174048 0.100276 0.242154
1821 1 0.0919083 0.494963 0.0728002
761 1 0.295644 0.109881 0.0530922
2029 1 0.175328 0.269849 0.224136
1639 1 0.423033 0.204103 0.302391
1376 1 0.423642 0.816434 0.00763772
1459 1 0.0941676 0.947789 0.196406
492 1 0.431378 0.257684 0.154999
1370 1 0.00244729 0.545913 0.00175582
1511 1 0.023094 0.780507 0.185197
448 1 0.247239 0.473301 0.0573107
208 1 0.288918 0.809682 0.257058
1531 1 0.38084 0.00856786 0.0767951
1165 1 0.416226 0.552744 0.246733
1959 1 0.29502 0.274702 0.204463
1491 1 0.482436 0.208427 0.0805904
1289 1 0.182493 0.930543 0.177757
1133 1 0.109998 0.520162 0.0100054
1782 1 0.461171 0.45996 0.130103
1812 1 0.264157 0.37994 0.222659
820 1 0.388698 0.0926443 0.204672
1692 1 0.176593 0.470598 0.131165
260 1 0.0206096 0.193213 0.232784
1857 1 0.289067 0.386136 0.292859
1372 1 0.207822 0.442145 0.000507219
420 1 0.0982215 0.521515 0.167404
499 1 0.183751 0.76479 0.0525862
2000 1 0.172917 0.389733 0.141987
1144 1 0.40956 0.769696 0.213849
727 1 0.0624105 0.547807 0.242381
847 1 0.13494 0.542466 0.229615
1509 1 0.202414 0.629443 0.255449
1507 1 0.352123 0.58551 0.216971
25 1 0.2484 0.648302 0.0443178
1351 1 0.351104 0.903521 0.0822857
380 1 0.169901 0.587579 0.162271
962 1 0.181908 0.265753 0.151792
1129 1 0.171091 0.63923 0.0479518
1622 1 0.431829 0.572642 0.332835
1482 1 0.115277 0.0285191 0.118542
1580 1 0.383032 0.408577 0.080206
1514 1 0.0245181 0.584183 0.162912
556 1 0.253988 0.766345 0.170658
222 1 0.220092 0.570853 0.213026
1119 1 0.077052 0.354883 0.0361465
271 1 0.079332 0.614532 0.00608778
1951 1 0.177004 0.740303 0.152707
1972 1 0.351266 0.708971 0.320128
127 1 0.273831 0.732715 0.0351898
1681 1 0.463247 0.128095 0.330139
1179 1 0.283485 0.907313 0.200572
1419 1 0.499169 0.18939 0.150164
455 1 0.124864 0.305193 0.0147807
1476 1 0.25673 0.145207 0.133217
112 1 0.143927 0.44335 0.0504783
1490 1 0.202627 0.820335 0.00193866
1602 1 0.0732833 0.0867563 0.244548
876 1 0.122402 0.0568206 0.292345
1808 1 0.318869 0.648262 0.293164
96 1 0.0194698 0.477191 0.048987
1988 1 0.264815 0.950578 0.104781
515 1 0.419392 0.949514 0.0640095
1458 1 0.410311 0.843741 0.0789891
1338 1 0.208419 0.810095 0.21478
268 1 0.425105 0.971437 0.294017
179 1 0.152897 0.97529 0.280072
644 1 0.0758041 0.44142 0.0164463
108 1 0.213974 0.204674 0.102079
82 1 0.346361 0.159086 0.10437
732 1 0.174689 0.873911 0.2404
1886 1 0.354188 0.247413 0.268569
42 1 0.0444231 0.984219 0.154884
915 1 0.110646 0.21062 0.204716
137 1 0.215228 0.350301 0.26972
1180 1 0.137561 0.17273 0.0774326
1684 1 0.403976 0.334831 0.332663
366 1 0.303107 0.317385 0.270221
1150 1 0.469828 0.181211 0.250262
1984 1 0.191493 0.499356 0.252951
746 1 0.472298 0.201275 0.0078837
1656 1 0.0186273 0.806717 0.0225546
1294 1 0.164321 0.249253 0.0651877
1925 1 0.159626 0.120513 0.309207
885 1 0.0687451 0.301295 0.152501
85 1 0.342639 0.532765 0.275184
545 1 0.0746038 0.237922 0.326593
655 1 0.415192 0.347497 0.135577
1190 1 0.287935 0.0107106 0.0419092
320 1 0.487455 0.547521 0.256603
662 1 0.125335 0.588886 0.0782395
1389 1 0.0202601 0.0511683 0.192113
293 1 0.446182 0.839492 0.223321
1837 1 0.107848 0.445883 0.153842
1085 1 0.148886 0.16218 0.00925456
226 1 0.29258 0.439315 0.142096
443 1 0.224333 0.666056 0.169447
43 1 0.432351 0.720822 0.0654208
577 1 0.263677 0.961099 0.316903
1455 1 0.316952 0.719589 0.126992
1737 1 0.495233 0.491445 0.0424803
1460 1 0.129395 0.792877 0.146678
960 1 0.216935 0.580629 0.0949638
1572 1 0.0943074 0.718735 0.279215
336 1 0.0406026 0.522305 0.122407
1609 1 0.242399 0.694906 0.105339
252 1 0.0713438 0.896194 0.0548794
1961 1 0.421243 0.907206 0.249222
107 1 0.155992 0.00243682 0.197527
28 1 0.33143 0.94655 0.142188
132 1 0.225465 0.794342 0.105843
314 1 0.363067 0.450282 0.286178
755 1 0.25341 0.0386769 0.244907
1356 1 0.0604144 0.555796 0.0468669
266 1 0.301288 0.103954 0.230343
1711 1 0.0578152 0.0253911 0.286834
677 1 0.239014 0.120036 0.28053
2047 1 0.039868 0.29515 0.305708
1866 1 0.388199 0.104995 0.134007
1893 1 0.230434 0.937822 0.238707
1803 1 0.0317755 0.798929 0.0966331
1600 1 0.296374 0.0670835 0.295029
13 1 0.0842914 0.738756 0.175838
1997 1 0.223485 0.72212 0.230914
6 1 0.203925 0.193767 0.182385
1748 1 0.200983 0.0264883 0.301059
1718 1 0.203663 0.200536 0.258322
377 1 0.105188 0.895253 0.262923
887 1 0.231859 0.119977 0.193784
225 1 0.0688982 0.577711 0.327162
1702 1 0.25413 0.573585 0.0231725
533 1 0.22323 0.440214 0.293416
1149 1 0.325524 0.123057 0.165608
1697 1 0.424709 0.69931 0.196134
1018 1 0.00212925 0.650091 0.281847
2014 1 0.135293 0.147081 0.188718
654 1 0.454709 0.0235721 0.0805292
913 1 0.0959715 0.401118 0.217421
299 1 0.211438 0.0193666 0.102864
1813 1 0.105781 0.50091 0.320292
144 1 0.0792368 0.430249 0.299575
495 1 0.104169 0.956985 0.0903476
524 1 0.290691 0.469688 0.280506
1354 1 0.468872 0.706883 0.25395
1443 1 0.339492 0.0459824 0.228957
2032 1 0.472695 0.127344 0.0263688
251 1 0.0622275 0.405209 0.0904603
1157 1 0.373739 0.0257157 0.158771
1450 1 0.0918247 0.224723 0.0357851
216 1 0.219546 0.435502 0.185019
1170 1 0.488227 0.660427 0.0706824
1542 1 0.351316 0.866327 0.0115723
579 1 0.349575 0.193464 0.32007
49 1 0.164409 0.409918 0.222845
510 1 0.46609 0.108087 0.249917
714 1 0.466309 0.877649 0.140032
215 1 0.11987 0.769213 0.327324
1211 1 0.407437 0.23153 0.221527
2037 1 0.298804 0.707449 0.216947
929 1 0.461201 0.690319 0.125734
2001 1 0.411497 0.484941 0.0432252
803 1 0.304853 0.822579 0.172151
1980 1 0.13496 0.654898 0.269863
1366 1 0.392385 0.732189 0.137062
1809 1 0.15131 0.993696 0.0480084
254 1 0.090488 0.0152776 0.226267
1448 1 0.419034 0.935636 0.152797
636 1 0.431262 0.436202 0.252549
1846 1 0.255249 0.0577578 0.00381861
232 1 0.444601 0.500325 0.321935
1355 1 0.388328 0.652865 0.265827
669 1 0.297792 0.0229535 0.1736
523 1 0.100475 0.0578744 0.0552227
2002 1 0.496048 0.027809 0.298633
1168 1 0.113611 0.60274 0.207577
297 1 0.472214 0.997645 0.151842
136 1 0.286357 0.530473 0.227903
340 1 0.241119 0.277356 0.275665
406 1 0.259487 0.200322 0.035138
239 1 0.0326608 0.997828 0.00213224
1173 1 0.434909 0.915393 -0.000185093
795 1 0.270755 0.212075 0.156566
609 1 0.293272 0.184932 0.235244
734 1 0.474408 0.983361 0.223502
356 1 0.268946 0.409316 0.0295029
1565 1 0.325909 0.452217 0.0655506
422 1 0.0580411 0.143598 0.180208
1916 1 0.417279 0.0557872 0.0292638
564 1 0.0921463 0.955679 0.324138
1931 1 0.183079 0.9314 0.0128285
718 1 0.417943 0.589591 0.154591
1914 1 0.4186 0.353249 0.215906
867 1 0.481228 0.506122 0.188569
1829 1 0.132699 0.356402 0.271827
1268 1 0.343938 0.389998 0.15366
175 1 0.367318 0.932789 0.0144108
720 1 0.366817 0.130936 0.265532
1038 1 0.195667 0.928107 0.105778
209 1 0.274112 0.639566 0.221889
1202 1 0.416992 0.517698 0.159979
1029 1 0.266025 0.312251 0.0414986
339 1 0.256766 0.68427 0.300574
301 1 0.222466 0.105664 0.0673621
98 1 0.221522 0.903526 0.297985
1398 1 0.118501 0.474982 0.252341
259 1 0.481022 0.905629 0.205882
363 1 0.36084 0.309517 0.221499
1466 1 0.339669 0.803963 0.0373942
361 1 0.178857 0.797183 0.287593
1301 1 0.153561 0.445346 0.309952
1936 1 0.294999 0.55578 0.324738
1373 1 0.470846 0.874153 0.0538487
652 1 0.393487 0.449438 0.151881
1346 1 0.379582 0.808942 0.146235
1826 1 0.0956769 0.621683 0.141464
446 1 0.359156 0.624815 0.0144837
169 1 0.378934 0.659181 0.154753
793 1 0.12777 0.809044 0.0122864
1424 1 0.362378 0.859967 0.253064
546 1 0.412522 0.331513 0.0212737
986 1 0.0598114 0.248885 0.257223
1743 1 0.0358109 0.968774 0.240733
1960 1 0.349309 0.0716186 0.0788955
1205 1 0.0125624 0.454051 0.128221
269 1 0.285414 0.229825 0.304945
730 1 0.0433659 0.889699 0.318806
1852 1 0.0152987 0.908873 0.107151
404 1 0.164829 0.59282 0.308554
961 1 0.267653 0.76533 0.328633
849 1 0.00182029 0.73377 0.0495026
305 1 0.465692 0.426614 0.0075785
456 1 0.433914 0.841107 0.309373
1991 1 0.0646335 0.16301 0.331767
1780 1 0.360323 0.782425 0.295717
1406 1 0.0569133 0.430351 0.429176
502 1 0.43526 0.444455 0.603618
1861 1 0.385406 0.302074 0.556044
2008 1 0.402444 0.913517 0.548026
1971 1 0.209041 0.24437 0.580208
1645 1 0.377061 0.174349 0.475564
191 1 0.0835649 0.896777 0.414599
1810 1 0.133826 0.024294 0.522927
567 1 0.183098 0.379373 0.337659
65 1 0.0347316 0.791396 0.604847
1673 1 0.0613625 0.991102 0.579736
554 1 0.186541 0.00313648 0.429337
450 1 0.109136 0.379878 0.345131
2031 1 0.0105361 0.616411 0.375381
1777 1 0.208225 0.796345 0.521402
739 1 0.0537444 0.86115 0.472131
1437 1 0.351948 0.74601 0.547414
536 1 0.287477 0.168897 0.352673
1189 1 0.0687383 0.0282461 0.643269
1655 1 0.0415539 0.934883 0.526641
247 1 0.454122 0.129 0.506371
1318 1 0.44858 0.972042 0.363137
2022 1 0.267674 0.852128 0.356203
2004 1 0.439069 0.690601 0.511325
1414 1 0.48174 0.189754 0.619606
737 1 0.0520731 0.550487 0.403184
1047 1 0.161645 0.523811 0.590928
804 1 0.195005 0.541612 0.387798
1853 1 0.251949 0.977904 0.408476
1870 1 0.109515 0.062049 0.577905
594 1 0.136079 0.382365 0.549413
868 1 0.219329 0.466119 0.570605
1833 1 0.318377 0.534599 0.537769
595 1 0.170955 0.614047 0.435343
1795 1 0.0156867 0.0511107 0.578449
1169 1 0.119158 0.823229 0.383494
1155 1 0.370714 0.769453 0.39626
1152 1 0.262962 0.848319 0.500461
1044 1 0.22601 0.561899 0.470722
1521 1 0.216299 0.481343 0.432711
894 1 0.278625 0.030595 0.453793
183 1 0.219978 0.783966 0.437638
504 1 0.496574 0.117376 0.59255
1595 1 0.11705 0.893593 0.35134
1278 1 0.407485 0.712717 0.649661
1911 1 0.132948 0.849016 0.502431
1791 1 0.363593 0.000449845 0.564759
905 1 0.450478 0.736325 0.453768
883 1 0.335502 0.188681 0.653876
1396 1 0.254987 0.611788 0.520943
237 1 0.307019 0.0197515 0.524119
946 1 0.0275267 0.140887 0.394589
592 1 0.290821 0.887658 0.604096
1742 1 0.24501 0.952514 0.6208
7 1 0.461012 0.314354 0.568487
744 1 0.172856 0.0807318 0.417997
143 1 0.226754 0.700139 0.514863
1561 1 0.447432 0.271424 0.450436
747 1 0.495748 0.681445 0.371699
205 1 0.0586108 0.700185 0.525952
665 1 0.251936 0.732692 0.39776
1571 1 0.375687 0.0724977 0.529691
1835 1 0.268279 0.344291 0.361926
445 1 0.47476 0.962317 0.488574
989 1 0.475668 0.0553945 0.403271
1233 1 0.303271 0.0736218 0.594267
1392 1 0.368785 0.403268 0.539882
1227 1 0.114472 0.247014 0.580165
469 1 0.434783 0.234543 0.565036
2005 1 0.457965 0.792814 0.586863
541 1 0.146977 0.359536 0.636019
1279 1 0.125825 0.917079 0.526367
738 1 0.165868 0.244676 0.444369
48 1 0.239891 0.367087 0.516133
980 1 0.388787 0.369713 0.412776
839 1 0.273138 0.319736 0.58676
1494 1 0.324543 0.29961 0.501156
953 1 0.279077 0.572633 0.395277
64 1 0.375032 0.645465 0.600325
1569 1 0.394652 0.260268 0.348338
1558 1 0.23642 0.0163842 0.542786
608 1 0.285203 0.465962 0.448895
514 1 0.314743 0.537804 0.457977
1290 1 0.377068 0.601055 0.400509
1464 1 0.0230489 0.248958 0.452099
1317 1 0.132577 0.456057 0.439169
787 1 0.0608829 0.700931 0.447037
626 1 0.0923036 0.621111 0.423312
1665 1 0.360961 0.474925 0.515187
1387 1 0.445266 0.0852183 0.655134
55 1 0.0600592 0.47543 0.36976
350 1 0.125781 0.659968 0.359538
1512 1 0.225455 0.285488 0.393922
1368 1 0.0923445 0.966586 0.48619
695 1 0.406154 0.709165 0.399823
643 1 0.319597 0.606095 0.483995
1940 1 0.44863 0.214968 0.385384
78 1 0.152272 0.714648 0.533062
979 1 0.26969 0.755163 0.539359
300 1 0.335225 0.677872 0.523967
1601 1 0.0976888 0.906109 0.655203
805 1 0.0219219 0.437531 0.62463
1232 1 0.353398 0.0566938 0.46127
530 1 0.220721 0.533904 0.63051
1054 1 0.265949 0.0910901 0.403682
1513 1 0.431765 0.0462165 0.333059
1932 1 0.383372 0.188374 0.553873
1614 1 0.415459 0.013313 0.515144
1156 1 0.337142 0.0112147 0.387988
1272 1 0.294448 0.154024 0.436369
1686 1 0.0327495 0.993363 0.347243
1154 1 0.13197 0.726566 0.650699
167 1 0.116433 0.18031 0.477477
765 1 0.437462 0.981205 0.616448
46 1 0.0936727 0.0706557 0.385705
1552 1 0.46346 0.875558 0.526744
348 1 0.489402 0.775227 0.512883
1804 1 0.231142 0.224195 0.483081
349 1 0.361245 0.980494 0.487585
58 1 0.433885 0.323904 0.496086
1941 1 0.120095 0.471433 0.564474
561 1 0.224657 0.119885 0.454933
844 1 0.33787 0.30357 0.336586
1891 1 0.312749 0.160857 0.51586
329 1 0.315375 0.414228 0.405933
302 1 0.0188778 0.290605 0.549158
1573 1 0.22661 0.291721 0.526089
1904 1 0.493723 0.182859 0.543965
1987 1 0.232809 0.580337 0.339346
1361 1 0.222225 0.650673 0.363047
1105 1 0.482278 0.300867 0.63778
2015 1 0.383464 0.803917 0.608144
181 1 0.0439101 0.103737 0.62214
1519 1 0.219298 0.139974 0.350188
1500 1 0.305491 0.547687 0.616098
1792 1 0.39029 0.484515 0.419865
1717 1 0.175688 0.3248 0.561216
1073 1 0.412201 0.410998 0.468594
213 1 0.229312 0.446967 0.640163
484 1 0.453162 0.65597 0.656429
1944 1 0.222577 0.155931 0.533523
1204 1 0.294153 0.475358 0.575163
1209 1 0.112399 0.0441775 0.45239
684 1 0.149798 0.391992 0.40571
331 1 0.269216 0.258433 0.638877
1197 1 0.326067 0.602148 0.566384
1679 1 0.312195 0.64216 0.36878
1259 1 0.441852 0.771714 0.372714
1405 1 0.0197939 0.849018 0.37292
1428 1 0.302423 0.71556 0.475546
1747 1 0.429073 0.904093 0.40075
2038 1 0.29569 0.824201 0.650779
1145 1 0.185146 0.708902 0.415457
436 1 0.0206953 0.528018 0.340291
1541 1 0.27056 0.13845 0.639918
1063 1 0.266961 0.0225645 0.354928
1559 1 0.3135 0.48112 0.651383
1182 1 0.267483 0.924418 0.458208
1621 1 0.0242988 0.35993 0.536356
1333 1 0.233775 0.436153 0.364483
1516 1 0.322293 0.94523 0.419387
1979 1 0.255458 0.774181 0.613534
640 1 0.321429 0.238557 0.450025
203 1 0.105352 0.871411 0.588662
1309 1 0.43438 0.63561 0.374632
572 1 0.382613 0.943648 0.355038
1158 1 0.119796 0.585344 0.506436
539 1 0.351012 0.116926 0.400645
16 1 0.394077 0.0314626 0.662434
1592 1 0.423335 0.143837 0.60111
1885 1 0.193451 0.0550929 0.485833
238 1 0.083212 0.193537 0.621149
1836 1 0.00574377 0.304381 0.631558
1834 1 0.0212377 0.208727 0.366976
1937 1 0.331837 0.260172 0.596718
1650 1 0.415413 0.0989921 0.43779
1473 1 0.17229 0.0799298 0.554704
939 1 0.0955104 0.216305 0.392467
1444 1 0.328316 0.818036 0.359238
52 1 0.222572 0.905873 0.378607
2046 1 0.068137 0.250478 0.510796
1636 1 0.238781 0.207218 0.40944
1114 1 0.0535726 0.571484 0.470357
1875 1 0.0508864 0.28583 0.387372
911 1 0.293603 0.36362 0.459497
285 1 0.0274367 0.757804 0.379439
1947 1 0.0898786 0.46766 0.500854
671 1 0.211749 0.330126 0.462719
19 1 0.308504 0.468772 0.351452
1096 1 0.188887 0.430595 0.514003
1995 1 0.0215786 0.230986 0.642241
1693 1 0.0786379 0.388825 0.495604
895 1 0.160477 0.437921 0.613026
1343 1 0.0141107 0.494731 0.478109
1647 1 0.0449537 0.621976 0.538654
672 1 0.430375 0.592165 0.57061
1865 1 0.0703256 0.416441 0.561987
537 1 0.29882 0.395783 0.552084
439 1 0.397014 0.166439 0.364116
1811 1 0.320565 0.717134 0.390643
2 1 0.383689 0.29437 0.413238
892 1 0.379535 0.216456 0.41326
687 1 0.235275 0.593907 0.593201
1523 1 0.195306 0.838773 0.57681
708 1 0.0878573 0.803451 0.444202
1115 1 0.319733 0.412653 0.625301
444 1 0.102878 0.292164 0.443837
806 1 0.344427 0.529941 0.375485
1095 1 0.184883 0.106761 0.622953
1314 1 0.28735 0.786395 0.425096
1369 1 0.166029 0.84261 0.432343
1963 1 0.164882 0.91741 0.633943
1388 1 0.332265 0.820731 0.491859
1339 1 0.320419 0.826852 0.567788
1768 1 0.103533 0.662123 0.602094
1884 1 0.160515 0.503728 0.507546
130 1 0.190115 0.900769 0.550475
550 1 0.148582 0.113537 0.482992
1081 1 0.480785 0.0581619 0.481813
1311 1 0.46225 0.394703 0.393358
1364 1 0.132976 0.57988 0.375748
916 1 0.370975 0.0905945 0.608467
1463 1 0.442047 0.508573 0.64244
327 1 0.0356221 0.122329 0.530131
1498 1 0.0880111 0.407622 0.629214
610 1 0.494184 0.327338 0.446962
1847 1 0.314346 0.305723 0.422638
1445 1 0.453152 0.211597 0.485743
1349 1 0.156925 0.176575 0.648935
790 1 0.161446 0.184396 0.562118
1570 1 0.284152 0.100644 0.488297
1788 1 0.066779 0.721473 0.595487
74 1 0.24762 0.860089 0.431231
433 1 0.0306822 0.968276 0.643058
71 1 0.170552 0.477324 0.37446
1446 1 0.347181 0.391224 0.345118
1439 1 0.115295 0.747492 0.402402
1110 1 0.158844 0.0337666 0.361968
1712 1 0.138866 0.657676 0.487168
975 1 0.341045 0.339695 0.597438
1059 1 0.483296 0.620752 0.530238
1403 1 0.132728 0.343714 0.487595
1920 1 0.151717 0.281214 0.645453
848 1 0.0585278 0.36079 0.394131
1735 1 0.199232 0.718125 0.332298
1588 1 0.234529 0.397322 0.431444
1009 1 0.221389 0.384814 0.599902
56 1 0.0940393 0.143215 0.410761
992 1 0.0381848 0.493891 0.554111
1127 1 0.0248023 0.173417 0.586506
1724 1 0.019747 0.877982 0.605674
648 1 0.156346 0.300863 0.399274
1453 1 0.431738 0.477281 0.485194
1336 1 0.131604 0.545343 0.436972
1241 1 0.374066 0.500418 0.593956
322 1 0.420696 0.827482 0.458082
185 1 0.00287687 0.817174 0.441551
763 1 0.0772026 0.320951 0.649276
460 1 0.322156 0.244817 0.373475
1246 1 0.460383 0.531411 0.425327
1646 1 0.499398 0.898503 0.346571
837 1 0.417413 0.362224 0.614268
770 1 0.43754 0.691718 0.586716
187 1 0.329399 0.751865 0.617086
1422 1 0.444832 0.549744 0.514685
2023 1 0.0615113 0.0574771 0.513238
1582 1 0.30463 0.915386 0.351646
1002 1 0.390958 0.546427 0.461423
69 1 0.0437866 0.860585 0.542423
926 1 0.21604 0.955026 0.493595
330 1 0.368152 0.660167 0.460794
832 1 0.385296 0.252832 0.489004
1915 1 0.105933 0.788293 0.557662
899 1 0.0761558 0.330829 0.577047
1430 1 0.336204 0.149429 0.590276
1863 1 0.00741275 0.668265 0.658618
1109 1 0.0324972 0.413693 0.349627
1763 1 0.487577 0.535887 0.590029
1974 1 0.320092 0.870925 0.432601
45 1 0.407329 0.918619 0.471984
1362 1 0.155451 0.597439 0.60039
1540 1 0.402793 0.997844 0.425049
725 1 0.358265 0.860905 0.641595
295 1 0.151365 0.757009 0.466559
501 1 0.173815 0.172083 0.433016
768 1 0.295431 0.233115 0.524647
1208 1 0.183795 0.953669 0.342026
1892 1 0.105683 0.144343 0.54519
1675 1 0.475809 0.316607 0.37964
1806 1 0.179835 0.975565 0.568
189 1 0.331691 0.895089 0.509357
1216 1 0.152237 0.170347 0.365509
362 1 0.25048 0.668671 0.429761
1417 1 0.482378 0.936228 0.581391
1185 1 0.49145 0.722706 0.632613
372 1 0.396415 0.246322 0.63214
538 1 0.190238 0.787797 0.365784
1750 1 0.181202 0.572467 0.530695
1088 1 0.162064 0.246894 0.516872
221 1 0.0839201 0.563349 0.583697
1327 1 0.464878 0.465719 0.383823
1902 1 0.446599 0.40994 0.541499
358 1 0.393874 0.831722 0.529533
1300 1 0.378165 0.944752 0.633253
1913 1 0.40785 0.834727 0.385276
1779 1 0.31234 0.994789 0.628186
193 1 0.243115 0.531888 0.535477
1649 1 0.0309511 0.178235 0.472502
479 1 0.0217241 0.77745 0.499231
2006 1 0.0543419 0.675759 0.379921
413 1 0.370525 0.736625 0.460445
941 1 0.442841 0.625658 0.458071
417 1 0.1401 0.81838 0.640809
794 1 0.178213 0.648911 0.545582
1721 1 0.224312 0.199564 0.657868
2027 1 0.492598 0.679803 0.449527
1221 1 0.199993 0.725383 0.625027
342 1 0.276461 0.196165 0.60103
1935 1 0.388763 0.633511 0.529552
1203 1 0.256945 0.690012 0.591192
984 1 0.271303 0.935407 0.551149
164 1 0.207205 0.647349 0.62995
716 1 0.378763 0.561287 0.642212
73 1 0.129047 0.975388 0.390632
419 1 0.480837 0.824534 0.399076
513 1 0.153708 0.936744 0.452023
1069 1 0.110138 0.111288 0.652242
1596 1 0.167238 0.491596 0.660057
1598 1 0.230314 0.0336215 0.615061
151 1 0.0782156 0.495246 0.626483
920 1 0.0807077 0.777086 0.659218
1576 1 0.210386 0.319025 0.625662
686 1 0.0124537 0.966128 0.429386
1386 1 0.216451 0.219017 0.341534
1123 1 0.481295 0.0485929 0.549755
1194 1 0.327955 0.68756 0.66498
1506 1 0.419604 0.409722 0.334276
1754 1 0.00451832 0.673634 0.480863
1843 1 0.1368 0.561725 0.66594
1067 1 0.00213619 0.11532 0.462195
741 1 0.493264 0.891427 0.467076
1715 1 0.49424 0.0315405 0.649467
1978 1 0.475475 0.90993 0.664766
977 1 0.17268 0.851852 0.334268
1499 1 0.182705 0.294638 0.881122
1704 1 0.299976 0.0885013 0.950662
1671 1 0.195389 0.278151 0.76868
1722 1 0.0616853 0.381178 0.960381
818 1 0.263319 0.773494 0.884897
1359 1 0.281403 0.966881 0.880374
1683 1 0.333716 0.976558 0.697231
147 1 0.490662 0.696711 0.908605
1943 1 0.158863 0.20788 0.877218
1284 1 0.460314 0.354615 0.734559
1766 1 0.436165 0.726069 0.858451
1615 1 0.280506 0.182773 0.700759
2040 1 0.40396 0.668308 0.7193
1269 1 0.282063 0.180802 0.963487
1013 1 0.234621 0.635305 0.706696
969 1 0.400345 0.307528 0.766187
565 1 0.263849 0.966356 0.763022
997 1 0.439447 0.168607 0.877145
393 1 0.399816 0.738362 0.916999
1584 1 0.254082 0.725213 0.684223
702 1 0.281645 0.620158 0.903378
1890 1 0.381017 0.820335 0.840294
149 1 0.461116 0.774876 0.674906
1410 1 0.419319 0.55195 0.834654
1831 1 0.242643 0.446665 0.710713
542 1 0.213758 0.151093 0.714273
631 1 0.0842257 0.416291 0.768034
1472 1 0.0732915 0.725211 0.798197
117 1 0.147438 0.397997 0.935273
1425 1 0.169795 0.215406 0.808653
1312 1 0.352814 0.123674 0.988987
435 1 0.191366 0.74902 0.732113
253 1 0.462251 0.876453 0.926729
740 1 0.234366 0.00287272 0.958296
1736 1 0.244402 0.247155 0.820674
1854 1 0.351314 0.348868 0.962643
1099 1 0.233141 0.983214 0.694539
1254 1 0.0602006 0.0683813 0.893323
1895 1 0.263935 0.592379 0.77376
630 1 0.415754 0.92279 0.779336
981 1 0.409864 0.831361 0.764161
965 1 0.139692 0.657363 0.961537
1908 1 0.0324738 0.647734 0.725244
1292 1 0.175108 0.0353642 0.828318
375 1 0.0296969 0.349526 0.736503
250 1 0.253363 0.82323 0.825543
1922 1 0.362209 0.513417 0.705747
412 1 0.414624 0.62051 0.938605
1034 1 0.329239 0.970317 0.966401
316 1 0.293028 0.847566 0.900595
936 1 0.0691839 0.310197 0.854305
705 1 0.308111 0.111288 0.728443
1657 1 0.119949 0.700055 0.728374
1381 1 0.485296 0.0580357 0.953361
493 1 0.0011208 0.479454 0.948666
124 1 0.0169817 0.831617 0.887343
289 1 0.418963 0.837396 0.683128
996 1 0.256444 0.298738 0.891375
1871 1 0.420235 0.20949 0.740106
619 1 0.446597 0.000698313 0.977885
1526 1 0.186834 0.960659 0.895457
728 1 0.0355923 0.145085 0.838708
282 1 0.297238 0.539191 0.874654
1126 1 0.0532288 0.471303 0.707871
548 1 0.426533 0.144597 0.778131
1380 1 0.156421 0.341835 0.715293
1775 1 0.423643 0.995502 0.77925
1897 1 0.496747 0.736451 0.809501
1981 1 0.226484 0.342874 0.742966
307 1 0.097653 0.228494 0.681521
308 1 0.335779 0.707952 0.762195
657 1 0.125431 0.27829 0.817758
206 1 0.34739 0.586896 0.955182
995 1 0.0230379 0.294262 0.783697
15 1 0.309677 0.761855 0.722884
850 1 0.0420383 0.642136 0.948341
1800 1 0.159508 0.00516958 0.967337
994 1 0.142337 0.572663 0.961935
661 1 0.411858 0.39304 0.947036
1548 1 0.147702 0.19087 0.73765
1699 1 0.300635 0.384641 0.722952
809 1 0.26406 0.340818 0.812374
1934 1 0.42133 0.180658 0.672366
810 1 0.109431 0.494961 0.914206
1799 1 0.127423 0.435223 0.689293
511 1 0.429479 0.875196 0.860528
1304 1 0.309334 0.410056 0.825386
890 1 0.183567 0.727755 0.882707
771 1 0.496823 0.514823 0.732805
1590 1 0.246372 0.408347 0.78879
2024 1 0.0726445 0.883622 0.913926
909 1 0.387119 0.514843 0.905733
735 1 0.422685 0.949606 0.84301
862 1 0.257821 0.698614 0.850464
1350 1 0.37197 0.387632 0.874053
709 1 0.306365 0.650244 0.726581
1080 1 0.0428025 0.595115 0.884776
1245 1 0.367872 0.441346 0.68796
1517 1 0.0761439 0.589024 0.804349
1874 1 0.110815 0.167283 0.920692
1261 1 0.177806 0.668327 0.793635
138 1 0.159901 0.956355 0.774185
985 1 0.427693 0.622395 0.814184
1740 1 0.391815 0.0186877 0.850694
1905 1 0.356366 0.255849 0.714911
257 1 0.1024 0.652535 0.8107
1244 1 0.280041 0.126896 0.89451
1801 1 0.275823 0.33143 0.971224
694 1 0.430815 0.399419 0.672742
1483 1 0.182438 0.839799 0.728255
485 1 0.106379 0.090842 0.838466
1250 1 0.406754 0.955427 0.934407
1200 1 0.00333739 0.287555 0.934501
623 1 0.190175 0.908469 0.705953
188 1 0.40431 0.570964 0.715735
91 1 0.207839 0.799854 0.669918
284 1 0.200385 0.244155 0.704367
1817 1 0.254467 0.815336 0.741363
1032 1 0.00529652 0.434053 0.780926
411 1 0.199899 0.391547 0.68436
245 1 0.0198917 0.411263 0.85625
1660 1 0.490648 0.112355 0.819982
1134 1 0.0556089 0.82281 0.824106
1505 1 0.345532 0.0459939 0.990912
90 1 0.215312 0.360517 0.918255
1879 1 0.279791 0.921093 0.692115
1125 1 0.216704 0.372359 0.991005
1667 1 0.154865 0.601145 0.8234
1273 1 0.0351196 0.7581 0.718117
8 1 0.289198 0.436456 0.963013
896 1 0.082473 0.376151 0.699262
1423 1 0.150957 0.346128 0.832795
1295 1 0.235461 0.864694 0.666706
278 1 0.479876 0.528677 0.980346
159 1 0.159736 0.473701 0.759163
158 1 0.136383 0.0678708 0.7609
664 1 0.398709 0.664542 0.860854
1515 1 0.223874 0.502689 0.758855
1337 1 0.377155 0.772905 0.676527
788 1 0.251237 0.0363919 0.824651
1877 1 0.329496 0.686979 0.835174
908 1 0.102304 0.588319 0.735812
384 1 0.487121 0.348483 0.960432
1575 1 0.264498 0.503083 0.818403
3 1 0.47673 0.429219 0.732985
663 1 0.0357077 0.866799 0.763283
629 1 0.0704701 0.0224102 0.806834
551 1 0.196318 0.807894 0.915685
721 1 0.414378 0.698696 0.795501
1832 1 0.375185 0.765128 0.780157
1898 1 0.0267653 0.938505 0.714064
368 1 0.442502 0.742524 0.748803
102 1 0.109801 0.641495 0.892024
459 1 0.246982 0.884177 0.765463
1796 1 0.361762 0.0144037 0.916215
1365 1 0.0886686 0.807195 0.752611
782 1 0.110704 0.716621 0.861074
1771 1 0.271122 0.0500261 0.746201
970 1 0.0896208 0.980387 0.729319
1432 1 0.322053 0.0327141 0.824553
1120 1 0.219328 0.938157 0.810959
1374 1 0.0660335 0.149747 0.77286
673 1 0.419691 0.296568 0.683929
1823 1 0.132996 0.758274 0.785132
32 1 0.337647 0.839076 0.712807
1733 1 0.326125 0.174088 0.848681
1738 1 0.359579 0.173762 0.723572
421 1 0.414087 0.955638 0.707915
1263 1 0.479438 0.210519 0.806724
1501 1 0.273393 0.131311 0.823029
1678 1 0.0346895 0.175086 0.986593
1967 1 0.461612 0.0612776 0.885562
807 1 0.462834 0.280113 0.742473
1363 1 0.268083 0.260189 0.711215
1219 1 0.00257911 0.0313429 0.83902
871 1 0.0916797 0.310968 0.942946
160 1 0.435894 0.280302 0.826693
2013 1 0.499396 0.677873 0.989102
44 1 0.10707 0.90667 0.738567
398 1 0.316697 0.588937 0.69127
184 1 0.39204 0.232412 0.888187
1496 1 0.351697 0.819876 0.945105
570 1 0.0302376 0.520628 0.869795
1677 1 0.488695 0.621655 0.876096
704 1 0.390578 0.206455 0.980169
1344 1 0.288108 0.45309 0.882631
1010 1 0.0500596 0.26665 0.722289
587 1 0.0296996 0.0620712 0.960543
1994 1 0.00230893 0.917889 0.920637
784 1 0.38704 0.696773 0.980723
751 1 0.423755 0.445835 0.893219
949 1 0.159142 0.65483 0.68962
834 1 0.446646 0.329947 0.876016
639 1 0.347989 0.658885 0.908213
852 1 0.324123 0.30983 0.75818
335 1 0.109478 0.870401 0.981389
2011 1 0.380278 0.591882 0.879076