LAMMPS (15 Sep 2022)
OMP_NUM_THREADS environment is not set. Defaulting to 1 thread. (src/comm.cpp:98)
  using 1 OpenMP thread(s) per MPI task
# 2d WCA system, random initial configuration

#variable density equal 0.5
variable initial_temperature equal 3.0
variable final_temperature equal 0.1
variable dt equal 0.01
variable tau equal 100*${dt}
variable tau equal 100*0.01
variable thermo_time equal 50000*${dt}
variable thermo_time equal 50000*0.01
variable equil_steps equal 50000
variable run_steps equal 100000

units           lj
atom_style      atomic
dimension       2

lattice         sq ${density}
lattice         sq 1.1
Lattice spacing in x,y,z = 0.95346259 0.95346259 0.95346259
region          box block 0 20 0 20 -0.5 0.5
# number of atom types
create_box      1 box
Created orthogonal box = (0 0 -0.47673129) to (19.069252 19.069252 0.47673129)
  3 by 2 by 1 MPI processor grid
create_atoms    1 box
Created 400 atoms
  using lattice units in orthogonal box = (0 0 -0.47673129) to (19.069252 19.069252 0.47673129)
  create_atoms CPU = 0.134 seconds
mass 1 1.0

velocity all create ${initial_temperature} 12345
velocity all create 3 12345

pair_style      lj/cut 1.0
#type_1 type_2 epsilon sigma cutoff
pair_coeff      1 1 10.0 0.89089871814 1.0
pair_modify shift yes

timestep ${dt}
timestep 0.01
thermo ${thermo_time}
thermo 500

fix 1 all nvt temp ${initial_temperature} ${initial_temperature} ${tau}
fix 1 all nvt temp 3 ${initial_temperature} ${tau}
fix 1 all nvt temp 3 3 ${tau}
fix 1 all nvt temp 3 3 1
run ${equil_steps}
run 50000
Generated 0 of 0 mixed pair_coeff terms from geometric mixing rule
Neighbor list info ...
  update: every = 1 steps, delay = 0 steps, check = yes
  max neighbors/atom: 2000, page size: 100000
  master list distance cutoff = 1.3
  ghost atom cutoff = 1.3
  binsize = 0.65, bins = 30 30 2
  1 neighbor lists, perpetual/occasional/extra = 1 0 0
  (1) pair lj/cut, perpetual
      attributes: half, newton on
      pair build: half/bin/atomonly/newton
      stencil: half/bin/2d
      bin: standard
Per MPI rank memory allocation (min/avg/max) = 3.048 | 3.048 | 3.048 Mbytes
   Step          Temp          E_pair         E_mol          TotEng         Press     
         0   3              2.19122        0              5.18372        61.445802    
       500   3.1743966      2.1942314      0              5.3606921      46.214631    
      1000   3.1199758      2.41103        0              5.5232059      49.35341     
      1500   3.1578821      2.1071336      0              5.2571211      45.19745     
      2000   2.9674311      2.0251208      0              4.9851334      43.547347    
      2500   2.9940369      1.9776493      0              4.9642011      42.883125    
      3000   2.9947517      1.9429944      0              4.9302592      42.933665    
      3500   2.9771761      1.89611        0              4.8658431      42.132957    
      4000   3.0139679      1.9769286      0              4.9833616      42.878513    
      4500   2.8625471      2.0460593      0              4.90145        43.75355     
      5000   2.9165776      1.9606622      0              4.8699483      43.263052    
      5500   2.9649121      2.0254309      0              4.9829307      44.608989    
      6000   2.9567058      2.145085       0              5.094399       45.804752    
      6500   3.3505896      2.1749161      0              5.5171292      46.702928    
      7000   2.8820089      2.1300376      0              5.0048415      45.298566    
      7500   3.2388733      2.1380503      0              5.3688264      45.547176    
      8000   2.8163941      2.0439407      0              4.8532938      44.021457    
      8500   2.956635       2.0740842      0              5.0233275      44.264795    
      9000   3.0829949      1.9252522      0              5.0005397      42.089506    
      9500   2.8597892      2.1108902      0              4.9635299      45.666534    
     10000   3.0186462      2.0205995      0              5.031699       43.347213    
     10500   3.2514266      2.045377       0              5.2886751      44.539864    
     11000   3.0088726      2.2041643      0              5.2055147      45.564271    
     11500   3.4446405      1.9063994      0              5.3424282      43.144467    
     12000   2.8230406      2.0810361      0              4.8970191      44.184424    
     12500   3.0722415      1.9846404      0              5.0492013      43.000008    
     13000   3.1652771      2.1703344      0              5.3276983      46.022704    
     13500   3.1398237      2.0496881      0              5.1816623      43.671981    
     14000   3.1588692      2.4117781      0              5.5627501      49.02629     
     14500   2.9366243      1.9737042      0              4.9029869      43.349226    
     15000   2.9529818      2.0472428      0              4.9928422      43.046964    
     15500   2.913106       2.1559643      0              5.0617875      44.740206    
     16000   3.3774761      2.0236854      0              5.3927178      44.454155    
     16500   3.1204638      1.9770513      0              5.0897139      43.332698    
     17000   2.834223       2.1612595      0              4.988397       45.819199    
     17500   2.9373201      2.0245864      0              4.9545633      43.636374    
     18000   2.918508       2.0310209      0              4.9422326      44.132635    
     18500   3.0355736      2.2466938      0              5.2746784      46.595114    
     19000   3.2944556      2.0014362      0              5.2876556      43.769117    
     19500   3.0618671      1.9320751      0              4.9862875      42.952337    
     20000   3.0604504      1.93173        0              4.9845292      42.362322    
     20500   2.8044284      2.1482159      0              4.9456332      45.183719    
     21000   2.936203       2.0839802      0              5.0128427      44.804708    
     21500   3.0497191      1.9976477      0              5.0397425      43.275281    
     22000   3.1210662      2.347784       0              5.4610475      47.726403    
     22500   2.9652639      1.9413352      0              4.899186       42.061886    
     23000   3.0078698      2.1244571      0              5.1248072      45.64388     
     23500   2.8347511      1.9079595      0              4.7356237      41.674842    
     24000   2.8979464      2.1180832      0              5.0087847      44.551972    
     24500   2.957652       2.0964146      0              5.0466725      44.426431    
     25000   2.8832866      2.1324052      0              5.0084836      45.462302    
     25500   2.7259739      1.9793914      0              4.6985504      42.734359    
     26000   3.0007624      2.1149919      0              5.1082524      44.795854    
     26500   2.9701         1.9627276      0              4.9254023      43.277841    
     27000   3.0811102      1.9241034      0              4.9975108      43.100195    
     27500   3.3234105      1.8723004      0              5.1874023      42.656347    
     28000   2.9564745      2.0369866      0              4.98607        43.321968    
     28500   3.176448       2.0815502      0              5.250057       45.255108    
     29000   3.1722168      2.0826034      0              5.2468896      45.482072    
     29500   2.8788564      2.1264979      0              4.9981571      45.552129    
     30000   3.027266       1.9727991      0              4.9924969      42.605756    
     30500   3.0777697      2.273656       0              5.3437313      47.229513    
     31000   3.0476017      1.952419       0              4.9924017      42.559304    
     31500   3.1821278      1.7951221      0              4.9692945      41.412695    
     32000   3.0598269      1.8981625      0              4.9503398      41.492577    
     32500   2.8288269      2.1854192      0              5.0071741      45.372135    
     33000   2.9634045      2.1311019      0              5.0870979      45.395839    
     33500   2.9616062      2.461552       0              5.4157542      49.162229    
     34000   2.8626663      1.9396152      0              4.7951248      43.198036    
     34500   3.0249348      2.0231033      0              5.0404757      44.059897    
     35000   3.2701207      2.2436751      0              5.5056205      46.695342    
     35500   3.17896        1.9057853      0              5.0767979      42.441137    
     36000   3.1950159      1.9284815      0              5.1155099      43.013267    
     36500   2.9218573      2.1278759      0              5.0424285      44.608319    
     37000   3.1167252      2.243377       0              5.3523104      47.516103    
     37500   2.8651114      2.0814366      0              4.9393852      44.127836    
     38000   2.9366343      2.0489864      0              4.9782791      42.985208    
     38500   3.0773116      2.1800842      0              5.2497026      45.553997    
     39000   3.2910608      2.1920182      0              5.4748513      46.592405    
     39500   2.9245407      2.2177561      0              5.1349854      46.17713     
     40000   3.1459494      2.187557       0              5.3256415      46.478929    
     40500   2.8796441      2.0649074      0              4.9373524      44.662842    
     41000   2.8976143      1.9872372      0              4.8776074      43.029576    
     41500   3.1580997      2.0181187      0              5.1683231      43.760954    
     42000   3.2255435      2.0904254      0              5.3079051      44.604163    
     42500   3.2355609      1.8871386      0              5.1146106      42.639915    
     43000   3.5405878      1.8943478      0              5.4260841      42.331881    
     43500   2.8755464      1.9753968      0              4.8437544      43.301748    
     44000   3.0987212      1.9161115      0              5.0070859      42.04772     
     44500   2.90411        1.9813742      0              4.8782239      43.017576    
     45000   3.0997957      1.9890238      0              5.08107        43.702771    
     45500   2.9620731      1.9154895      0              4.8701574      42.283026    
     46000   2.8478162      2.1452578      0              4.9859545      45.426602    
     46500   2.9072339      2.4020457      0              5.3020115      49.153492    
     47000   2.9774214      2.1267438      0              5.0967216      45.380829    
     47500   2.7094715      1.9177287      0              4.6204265      41.719334    
     48000   2.9210605      1.8227226      0              4.7364805      41.292023    
     48500   2.8804694      1.9290296      0              4.8022978      42.36408     
     49000   3.0244639      2.0873492      0              5.1042519      44.710115    
     49500   3.0762114      2.1465563      0              5.2150772      45.734079    
     50000   2.7698248      2.1116836      0              4.8745838      44.435832    
Loop time of 2.80164 on 6 procs for 50000 steps with 400 atoms

Performance: 15419550.759 tau/day, 17846.702 timesteps/s, 7.139 Matom-step/s
90.9% CPU use with 6 MPI tasks x 1 OpenMP threads

MPI task timing breakdown:
Section |  min time  |  avg time  |  max time  |%varavg| %total
---------------------------------------------------------------
Pair    | 0.13031    | 0.13532    | 0.14338    |   1.2 |  4.83
Neigh   | 0.1371     | 0.1421     | 0.15015    |   1.4 |  5.07
Comm    | 1.6206     | 1.7021     | 1.8074     |   5.6 | 60.75
Output  | 0.0020531  | 0.0046407  | 0.01747    |   8.4 |  0.17
Modify  | 0.27109    | 0.4838     | 0.58318    |  14.9 | 17.27
Other   |            | 0.3337     |            |       | 11.91

Nlocal:        66.6667 ave          68 max          65 min
Histogram: 2 0 0 0 0 0 2 0 0 2
Nghost:        53.1667 ave          56 max          51 min
Histogram: 1 0 1 0 2 0 1 0 0 1
Neighs:            197 ave         202 max         191 min
Histogram: 2 0 0 0 0 0 1 1 1 1

Total # of neighbors = 1182
Ave neighs/atom = 2.955
Neighbor list builds = 16850
Dangerous builds = 0

unfix 1
dump           1 all atom ${run_steps} 2dWCA_T${final_temperature}_d${density}_N${run_steps}.lammpstrj
dump           1 all atom 100000 2dWCA_T${final_temperature}_d${density}_N${run_steps}.lammpstrj
dump           1 all atom 100000 2dWCA_T0.1_d${density}_N${run_steps}.lammpstrj
dump           1 all atom 100000 2dWCA_T0.1_d1.1_N${run_steps}.lammpstrj
dump           1 all atom 100000 2dWCA_T0.1_d1.1_N100000.lammpstrj
dump           2 all dcd ${thermo_time} 2dWCA_T${final_temperature}_d${density}_N${run_steps}.dcd
dump           2 all dcd 500 2dWCA_T${final_temperature}_d${density}_N${run_steps}.dcd
dump           2 all dcd 500 2dWCA_T0.1_d${density}_N${run_steps}.dcd
dump           2 all dcd 500 2dWCA_T0.1_d1.1_N${run_steps}.dcd
dump           2 all dcd 500 2dWCA_T0.1_d1.1_N100000.dcd
fix 1 all nvt temp ${initial_temperature} ${final_temperature} ${tau}
fix 1 all nvt temp 3 ${final_temperature} ${tau}
fix 1 all nvt temp 3 0.1 ${tau}
fix 1 all nvt temp 3 0.1 1

run ${run_steps}
run 100000
Generated 0 of 0 mixed pair_coeff terms from geometric mixing rule
Per MPI rank memory allocation (min/avg/max) = 3.073 | 3.073 | 3.073 Mbytes
   Step          Temp          E_pair         E_mol          TotEng         Press     
     50000   2.7698248      2.1116836      0              4.8745838      44.435832    
     50500   3.0729631      1.961751       0              5.0270316      43.244026    
     51000   3.0198172      1.9335809      0              4.9458486      42.046308    
     51500   2.8637498      2.1701701      0              5.0267605      45.762837    
     52000   3.1809255      2.0459592      0              5.2189323      44.236171    
     52500   3.0519682      2.0896364      0              5.1339747      43.736181    
     53000   3.2971229      1.9592685      0              5.2481486      43.165333    
     53500   2.8602027      1.8379127      0              4.690965       41.11291     
     54000   2.7832972      2.1079139      0              4.8842529      44.230602    
     54500   3.104564       2.0459757      0              5.1427784      43.911245    
     55000   2.8837154      1.8891933      0              4.7656994      41.701077    
     55500   2.9879768      1.9475918      0              4.9280987      42.576118    
     56000   2.6852411      1.9414762      0              4.6200042      41.944998    
     56500   2.7983378      2.0030424      0              4.7943844      43.517016    
     57000   2.5793594      1.8949781      0              4.4678891      42.054186    
     57500   2.7187349      1.8346261      0              4.5465642      40.929051    
     58000   2.5813479      1.8690258      0              4.4439204      40.662163    
     58500   2.7401365      1.9259523      0              4.6592385      42.601523    
     59000   2.841286       2.0086752      0              4.8428579      43.231638    
     59500   2.5997057      1.7065353      0              4.2997417      38.904261    
     60000   2.6430347      1.8374006      0              4.4738276      40.96373     
     60500   2.6220939      1.6022666      0              4.2178052      37.193623    
     61000   2.5968877      1.7280535      0              4.3184489      39.348249    
     61500   2.5257175      2.0974408      0              4.6168441      44.302685    
     62000   2.6497394      1.8934197      0              4.5365348      42.104772    
     62500   2.6570564      1.8988388      0              4.5492526      41.582336    
     63000   2.6740791      1.8770364      0              4.5444303      41.111926    
     63500   2.7537302      1.8087621      0              4.5556079      39.838501    
     64000   2.6280063      1.9157792      0              4.5372155      42.521619    
     64500   2.7241051      1.7820525      0              4.4993473      39.925383    
     65000   2.7158031      1.8301668      0              4.5391803      40.950757    
     65500   2.4864386      1.8997954      0              4.3800179      41.303859    
     66000   2.5505954      1.8677629      0              4.4119818      41.269558    
     66500   2.3321765      1.7430335      0              4.0693795      39.18397     
     67000   2.5405874      1.6070773      0              4.1413133      37.835386    
     67500   2.530984       1.4365211      0              3.9611777      35.582006    
     68000   2.5640288      1.5759117      0              4.1335305      37.22237     
     68500   2.4494105      1.835434       0              4.2787209      40.354623    
     69000   2.5633147      1.718868       0              4.2757744      38.804145    
     69500   2.5612957      1.6085312      0              4.1634237      36.858508    
     70000   2.3829483      1.5966873      0              3.9736782      36.418714    
     70500   2.309724       1.6544116      0              3.9583613      37.570459    
     71000   2.4645833      1.4419272      0              3.900349       34.673199    
     71500   2.3439714      1.5532131      0              3.8913246      36.697717    
     72000   2.2690126      1.5793631      0              3.8427032      36.86942     
     72500   2.3148691      1.4560282      0              3.7651101      35.029037    
     73000   2.4105673      1.4199203      0              3.8244612      34.387914    
     73500   2.390203       1.614971       0              3.9991985      37.689475    
     74000   2.3754065      1.5213959      0              3.8908638      36.016991    
     74500   2.3087445      1.6295105      0              3.9324831      37.043903    
     75000   2.2674733      1.644902       0              3.9067065      38.172875    
     75500   2.2880736      1.4074736      0              3.689827       34.427137    
     76000   2.1899931      1.4967409      0              3.6812591      35.727385    
     76500   2.1583306      1.5523601      0              3.7052948      35.939255    
     77000   2.3089707      1.3851447      0              3.6883429      33.952145    
     77500   2.1328208      1.7087968      0              3.8362856      38.541509    
     78000   2.3808204      1.4613474      0              3.8362158      35.279373    
     78500   2.1745054      1.6858498      0              3.854919       38.194044    
     79000   2.1838701      1.6528147      0              3.8312252      37.895095    
     79500   2.2448838      1.5048942      0              3.7441658      36.216117    
     80000   2.2143647      1.4764429      0              3.6852717      34.809733    
     80500   2.2406652      1.4016121      0              3.6366756      34.000994    
     81000   2.0368083      1.3238884      0              3.3556046      32.233386    
     81500   1.9076816      1.3465116      0              3.2494241      32.196037    
     82000   1.9952067      1.329305       0              3.3195238      32.648467    
     82500   2.0585923      1.3213511      0              3.3747969      32.779186    
     83000   2.1829353      1.4693907      0              3.6468687      34.871108    
     83500   2.0941503      1.6187347      0              3.7076496      36.970456    
     84000   2.0743443      1.4562102      0              3.5253686      34.831102    
     84500   2.1023256      1.4228167      0              3.5198864      33.548176    
     85000   2.0107227      1.4712848      0              3.4769807      34.875882    
     85500   1.9874061      1.312081       0              3.2945185      32.131376    
     86000   1.8620779      1.2796843      0              3.1371071      31.634784    
     86500   1.9204484      1.2473915      0              3.1630388      31.604269    
     87000   1.7828131      1.2720325      0              3.0503886      31.644846    
     87500   1.9643504      1.2250823      0              3.1845218      30.817929    
     88000   1.8842456      1.2910895      0              3.1706244      31.79149     
     88500   2.0522917      1.2795507      0              3.3267117      32.241251    
     89000   2.0337738      1.2289787      0              3.2576681      31.057211    
     89500   1.9505938      1.2795348      0              3.2252521      32.265488    
     90000   1.8680923      1.3042353      0              3.1676574      31.878277    
     90500   1.8513602      1.2258505      0              3.0725823      29.998652    
     91000   1.7551615      1.17881        0              2.9295835      30.241136    
     91500   1.7443391      1.0293916      0              2.7693699      28.115133    
     92000   1.6475739      1.1758602      0              2.8193152      30.390703    
     92500   1.7393339      1.1689199      0              2.9039055      29.671752    
     93000   1.7779582      1.1389972      0              2.9125106      29.454636    
     93500   1.8593636      1.1755705      0              3.0302857      30.306061    
     94000   1.7278987      1.1678871      0              2.891466       29.727432    
     94500   1.5788392      1.2176812      0              2.7925733      30.148516    
     95000   1.6369106      1.1951146      0              2.8279329      29.767214    
     95500   1.5564494      1.1212718      0              2.6738301      28.222587    
     96000   1.6753263      1.0924937      0              2.7636317      28.244461    
     96500   1.7891526      1.0678215      0              2.8525012      27.946856    
     97000   1.6408464      1.1579285      0              2.7946728      29.871826    
     97500   1.5555094      1.1085252      0              2.6601458      29.356597    
     98000   1.5130849      1.0238234      0              2.5331256      27.951977    
     98500   1.6389583      1.0469641      0              2.681825       28.216512    
     99000   1.7485222      1.0511465      0              2.7952974      27.65327     
     99500   1.5649749      1.0419274      0              2.6029899      27.999301    
    100000   1.4714117      1.0559023      0              2.5236355      27.9686      
    100500   1.5034666      1.0049831      0              2.504691       26.663222    
    101000   1.5230092      0.97931509     0              2.4985167      26.092543    
    101500   1.4345776      1.0527814      0              2.4837726      28.012329    
    102000   1.6100556      0.9882853      0              2.5943158      26.868981    
    102500   1.4592702      1.1930103      0              2.6486323      29.216148    
    103000   1.4613349      1.1586063      0              2.6162878      30.015582    
    103500   1.4802         1.0436293      0              2.5201287      27.711363    
    104000   1.4431952      1.0484196      0              2.4880068      27.653613    
    104500   1.5037857      0.95601987     0              2.4560461      26.169929    
    105000   1.3916577      0.97115698     0              2.3593356      26.128005    
    105500   1.4765309      0.80555537     0              2.278395       23.539134    
    106000   1.2943667      0.86767997     0              2.1588107      24.601884    
    106500   1.352869       0.94701169     0              2.2964986      25.453757    
    107000   1.3772579      0.88412995     0              2.2579447      25.012768    
    107500   1.3743766      0.94569185     0              2.3166325      25.785418    
    108000   1.3934851      0.78670425     0              2.1767056      23.397728    
    108500   1.3328711      0.75625128     0              2.0857902      22.351261    
    109000   1.1851372      0.88559114     0              2.0677655      24.996005    
    109500   1.2164291      0.8102405      0              2.0236286      23.138108    
    110000   1.189927       0.71903317     0              1.9059853      21.273055    
    110500   1.1955644      0.7498605      0              1.942436       22.475943    
    111000   1.2666669      0.7795246      0              2.0430249      23.199989    
    111500   1.178967       0.87158206     0              2.0476016      24.30955     
    112000   1.2376423      0.74075534     0              1.9753035      22.271156    
    112500   1.1593793      0.76075202     0              1.9172329      22.554777    
    113000   1.1215692      0.78430648     0              1.9030718      22.655428    
    113500   1.0777303      0.82988191     0              1.9049178      23.153108    
    114000   1.0938946      0.84334423     0              1.9345041      23.73102     
    114500   1.1003277      0.85651553     0              1.9540924      23.893806    
    115000   1.1764464      0.86547123     0              2.0389765      23.859929    
    115500   1.050874       0.73159539     0              1.7798422      21.674637    
    116000   1.1006686      0.64572548     0              1.7436424      20.080742    
    116500   1.094274       0.71867804     0              1.8102164      21.664591    
    117000   1.0964491      0.79308265     0              1.8867907      22.694988    
    117500   1.1697113      0.65855305     0              1.8253401      20.425564    
    118000   1.1198472      0.64368272     0              1.7607303      20.202911    
    118500   0.99204429     0.66476558     0              1.6543298      20.687454    
    119000   1.017327       0.5879511      0              1.6027348      18.893451    
    119500   0.94376002     0.6205052      0              1.5619058      20.022058    
    120000   0.97267947     0.57167023     0              1.541918       18.682094    
    120500   0.92212814     0.60978606     0              1.5296089      19.404552    
    121000   0.91689369     0.57661523     0              1.4912167      18.695994    
    121500   0.7811879      0.66882312     0              1.448058       20.110699    
    122000   0.88082083     0.55501577     0              1.4336346      17.933869    
    122500   0.85615152     0.50296463     0              1.3569758      17.239672    
    123000   0.85920794     0.54160535     0              1.3986653      17.66088     
    123500   0.88121287     0.59889672     0              1.4779066      19.247951    
    124000   0.89290006     0.58415654     0              1.4748243      18.834481    
    124500   0.87580309     0.58844744     0              1.462061       18.322289    
    125000   0.78559905     0.59900986     0              1.3826449      18.994166    
    125500   0.87941989     0.4859226      0              1.3631439      16.875241    
    126000   0.78933787     0.49869312     0              1.2860577      16.805389    
    126500   0.70674652     0.50733087     0              1.2123105      16.979511    
    127000   0.77177264     0.4714719      0              1.2413151      16.295607    
    127500   0.75159595     0.45948724     0              1.2092042      16.255818    
    128000   0.77525759     0.45175414     0              1.2250736      16.318892    
    128500   0.72566015     0.50058141     0              1.2244274      16.781376    
    129000   0.7501728      0.50945182     0              1.2577492      17.336853    
    129500   0.68705009     0.4524959      0              1.1378284      16.021491    
    130000   0.65880381     0.430418       0              1.0875748      15.158243    
    130500   0.63948948     0.42313357     0              1.0610243      14.933631    
    131000   0.65290566     0.41594194     0              1.0672153      15.230006    
    131500   0.64801101     0.37746021     0              1.0238512      14.456548    
    132000   0.59350404     0.38862366     0              0.98064394     14.264072    
    132500   0.60173763     0.42676217     0              1.0269955      15.148299    
    133000   0.65238827     0.38984522     0              1.0406025      14.273469    
    133500   0.62489387     0.38846255     0              1.0117942      14.370822    
    134000   0.6105067      0.38252057     0              0.991501       14.180361    
    134500   0.58701082     0.35364859     0              0.93919188     13.914428    
    135000   0.5888383      0.31909851     0              0.90646472     13.072148    
    135500   0.54340003     0.31034869     0              0.85239022     12.482861    
    136000   0.50833186     0.3132549      0              0.82031593     12.258483    
    136500   0.50773262     0.28095354     0              0.78741682     11.720578    
    137000   0.45832975     0.29715726     0              0.75434119     11.965532    
    137500   0.43580887     0.30301316     0              0.73773251     12.0446      
    138000   0.43324778     0.28227809     0              0.71444275     11.996077    
    138500   0.42873167     0.26411627     0              0.69177611     11.356968    
    139000   0.4069506      0.25453246     0              0.66046568     10.922961    
    139500   0.43254696     0.23369502     0              0.66516061     10.231827    
    140000   0.41384625     0.25233658     0              0.66514822     10.925394    
    140500   0.40372522     0.27143679     0              0.6741527      11.171561    
    141000   0.36315621     0.21525806     0              0.57750638     9.842243     
    141500   0.34275015     0.2074331      0              0.54932637     9.5907398    
    142000   0.32786247     0.19632123     0              0.52336404     9.2481557    
    142500   0.31088276     0.20110773     0              0.51121328     9.6221953    
    143000   0.31606061     0.20232365     0              0.5175941      9.3070513    
    143500   0.29524779     0.18703897     0              0.48154864     9.0218151    
    144000   0.28292667     0.16195897     0              0.44417833     8.3135176    
    144500   0.2413499      0.16925269     0              0.40999922     8.4204291    
    145000   0.24217875     0.13543824     0              0.37701154     7.4096094    
    145500   0.2377856      0.12809919     0              0.36529032     7.0995051    
    146000   0.20464174     0.12550618     0              0.32963632     7.2104961    
    146500   0.20011338     0.11947834     0              0.31909144     6.7139859    
    147000   0.18418984     0.11647605     0              0.30020542     6.5903653    
    147500   0.19454593     0.093606938    0              0.2876665      5.7934242    
    148000   0.14779949     0.099213616    0              0.24664361     6.1620043    
    148500   0.15971242     0.087416084    0              0.24672922     5.5840847    
    149000   0.12599986     0.070629106    0              0.19631397     4.9766543    
    149500   0.11856621     0.067024005    0              0.1852938      4.7924347    
    150000   0.097616998    0.05576353     0              0.15313649     4.4442629    
Loop time of 3.42961 on 6 procs for 100000 steps with 400 atoms

Performance: 25192336.600 tau/day, 29157.797 timesteps/s, 11.663 Matom-step/s
94.9% CPU use with 6 MPI tasks x 1 OpenMP threads

MPI task timing breakdown:
Section |  min time  |  avg time  |  max time  |%varavg| %total
---------------------------------------------------------------
Pair    | 0.24336    | 0.24964    | 0.25433    |   0.8 |  7.28
Neigh   | 0.17903    | 0.18207    | 0.18492    |   0.4 |  5.31
Comm    | 1.8428     | 1.952      | 2.0507     |   4.9 | 56.92
Output  | 0.036889   | 0.039914   | 0.054805   |   3.3 |  1.16
Modify  | 0.52361    | 0.60082    | 0.65952    |   7.1 | 17.52
Other   |            | 0.4052     |            |       | 11.81

Nlocal:        66.6667 ave          68 max          66 min
Histogram: 3 0 0 0 0 2 0 0 0 1
Nghost:        53.1667 ave          55 max          51 min
Histogram: 1 0 1 0 0 1 0 2 0 1
Neighs:        198.167 ave         204 max         193 min
Histogram: 1 0 0 1 2 1 0 0 0 1

Total # of neighbors = 1189
Ave neighs/atom = 2.9725
Neighbor list builds = 23240
Dangerous builds = 0
Total wall time: 0:00:08
