#     Step Nr.          Time[fs]        Kin.[a.u.]          Temp[K]            Pot.[a.u.]        Cons Qty[a.u.]        UsedTime[s]
         0            0.000000         0.275037913       300.000000000     -1103.026096481     -1102.751058568         0.000000000
         1            0.500000         0.280570142       306.034326997     -1103.030996238     -1102.751217869       291.751259074
         2            1.000000         0.279622366       305.000532860     -1103.040597622     -1102.751459467        33.350987848
         3            1.500000         0.283884018       309.648966700     -1103.051749910     -1102.751728928        26.786053002
         4            2.000000         0.292095659       318.605885832     -1103.057790641     -1102.751798865        19.486656986
         5            2.500000         0.304708856       332.363840377     -1103.059437923     -1102.751739267       264.044377908
         6            3.000000         0.306995630       334.858158420     -1103.054628388     -1102.751552369       265.331825383
         7            3.500000         0.293931340       320.608170182     -1103.046445154     -1102.751471198        26.715912525
         8            4.000000         0.286186629       312.160559489     -1103.040139846     -1102.751261594        30.367212534
         9            4.500000         0.290973198       317.381551697     -1103.038149519     -1102.751163125        25.638076037
        10            5.000000         0.282957093       308.637915323     -1103.039883104     -1102.751147942        28.544994000
        11            5.500000         0.312581616       340.951121561     -1103.048011018     -1102.751276940        25.610713150
        12            6.000000         0.322020118       351.246250267     -1103.057693458     -1102.751440207        19.203393079
        13            6.500000         0.315331570       343.950658329     -1103.067861601     -1102.751598049        16.847411975
        14            7.000000         0.316203611       344.901843980     -1103.079540926     -1102.751776466        12.887814362
        15            7.500000         0.338749014       369.493439541     -1103.086287806     -1102.751843191        10.532294016
        16            8.000000         0.356649939       389.019029142     -1103.092309030     -1102.751888622        12.093212090
        17            8.500000         0.333715080       364.002632243     -1103.095038927     -1102.751882041        10.470074818
        18            9.000000         0.322822787       352.121768288     -1103.094603797     -1102.751784470        11.333707001
        19            9.500000         0.317308352       346.106850614     -1103.092568005     -1102.751627264        10.498419069
        20           10.000000         0.300980388       328.296981145     -1103.089295813     -1102.751461647        12.541325364
        21           10.500000         0.292011389       318.513967125     -1103.085780105     -1102.751278210        10.493115067
        22           11.000000         0.293252109       319.867293424     -1103.086581908     -1102.751243746         9.719233401
        23           11.500000         0.286941793       312.984261608     -1103.094119228     -1102.751434737         9.729406305
        24           12.000000         0.295827635       322.676570743     -1103.103695252     -1102.751607924         9.738268949
        25           12.500000         0.309054203       337.103565262     -1103.112154490     -1102.751735582         9.694164164
        26           13.000000         0.306025669       333.800165890     -1103.118061504     -1102.751778339         9.720768355
        27           13.500000         0.331028858       361.072612009     -1103.121097670     -1102.751708432         9.706538778
        28           14.000000         0.317537308       346.356586007     -1103.122228453     -1102.751598092         8.966862440
        29           14.500000         0.308558624       336.563007881     -1103.122532321     -1102.751536712         8.984443385
        30           15.000000         0.319304261       348.283905027     -1103.120861607     -1102.751445111        12.168084800
        31           15.500000         0.329864200       359.802250653     -1103.120598561     -1102.751379012         8.977218736
        32           16.000000         0.326245492       355.855113891     -1103.120115439     -1102.751310979         8.122167099
        33           16.500000         0.317890380       346.741702694     -1103.122475098     -1102.751250214         8.920720886
        34           17.000000         0.319791574       348.815446081     -1103.126981658     -1102.751225302         8.891082641
        35           17.500000         0.337656912       368.302218841     -1103.134887281     -1102.751341468         8.127570007
        36           18.000000         0.330784208       360.805758043     -1103.143875121     -1102.751552821         8.110255189
        37           18.500000         0.350141448       381.919836191     -1103.148853939     -1102.751659188         8.174334291
        38           19.000000         0.345727812       377.105624045     -1103.148418321     -1102.751667123         8.615048908
        39           19.500000         0.342171548       373.226597413     -1103.146651699     -1102.751544362         8.183086425
        40           20.000000         0.331458991       361.541782569     -1103.141464826     -1102.751372131        11.256051015
        41           20.500000         0.322703724       351.991899542     -1103.138360123     -1102.751330013         8.175388858
        42           21.000000         0.321436489       350.609652080     -1103.138622431     -1102.751487137         8.129156053
        43           21.500000         0.319571481       348.575377461     -1103.137794332     -1102.751597828         8.107951876
        44           22.000000         0.323498624       352.858943689     -1103.134710721     -1102.751547913         8.141008697
        45           22.500000         0.301535709       328.902701893     -1103.130695122     -1102.751392134         8.173750121
        46           23.000000         0.291348801       317.791244004     -1103.126460990     -1102.751198821         8.153903939
        47           23.500000         0.302041388       329.454276605     -1103.130696380     -1102.751319673         8.138534203
        48           24.000000         0.315065089       343.659991900     -1103.139933373     -1102.751597963         8.124010973
        49           24.500000         0.306243695       334.037979517     -1103.150212172     -1102.751856003         8.981743626
        50           25.000000         0.307687359       335.612668585     -1103.157982116     -1102.752043250        14.959116526
        51           25.500000         0.299883908       327.100985624     -1103.162385623     -1102.752111928         8.192481589
        52           26.000000         0.292364003       318.898583746     -1103.164591632     -1102.752075422         8.127062760
        53           26.500000         0.293497136       320.134559153     -1103.162349065     -1102.751925639         8.185914420
        54           27.000000         0.290117282       316.447953135     -1103.160907194     -1102.751782363         8.118311372
        55           27.500000         0.282175279       307.785144527     -1103.160239142     -1102.751694480         8.106625605
        56           28.000000         0.276111270       301.170773662     -1103.164746097     -1102.751820476         8.152982865
        57           28.500000         0.292995071       319.586927105     -1103.173290992     -1102.752091648         8.136051182
        58           29.000000         0.300013391       327.242220238     -1103.177837370     -1102.752197869         8.225696463
        59           29.500000         0.303388998       330.924193962     -1103.182064387     -1102.752231031         8.191695239
        60           30.000000         0.307811409       335.747977100     -1103.183116389     -1102.752185318        10.969552703
        61           30.500000         0.303103072       330.612317761     -1103.183494559     -1102.752133979         8.120078202
        62           31.000000         0.301249443       328.590454728     -1103.181104781     -1102.752050770         8.105713423
        63           31.500000         0.298444590       325.531037615     -1103.180612319     -1102.752053386         8.166148469
        64           32.000000         0.310984824       339.209406505     -1103.179505535     -1102.752006103         8.145403583
        65           32.500000         0.311860999       340.165101954     -1103.179714384     -1102.751981891         8.134233363
        66           33.000000         0.298795826       325.914151478     -1103.178103397     -1102.751881556         8.129254904
        67           33.500000         0.295680924       322.516544777     -1103.178078490     -1102.751822077         8.156509649
        68           34.000000         0.311686679       339.974961093     -1103.180031307     -1102.751854388         8.145854946
        69           34.500000         0.330691408       360.704535021     -1103.186408563     -1102.751966252         7.342008311
        70           35.000000         0.333925377       364.232014973     -1103.190691525     -1102.752026551        12.164616890
        71           35.500000         0.332083459       362.222926379     -1103.192422395     -1102.751994709         8.109512798
        72           36.000000         0.324036647       353.445797068     -1103.194663927     -1102.751978166         7.375063825
        73           36.500000         0.331413988       361.492695922     -1103.195931586     -1102.751964884         8.145932794
        74           37.000000         0.319882170       348.914264445     -1103.198395923     -1102.751973567         8.142322604
        75           37.500000         0.333971661       364.282500031     -1103.202007727     -1102.752034986         8.132748593
        76           38.000000         0.311912091       340.220831450     -1103.204261574     -1102.752090211         8.118932702
        77           38.500000         0.307227617       335.111200274     -1103.205662727     -1102.752138771         8.140019365
        78           39.000000         0.308680314       336.695742948     -1103.206558634     -1102.752181327         8.135468107
        79           39.500000         0.313551156       342.008656365     -1103.202942273     -1102.752105330         8.129565734
        80           40.000000         0.301662720       329.041240453     -1103.196059910     -1102.751912137        10.552237913
        81           40.500000         0.324036856       353.446024592     -1103.190653523     -1102.751749223         8.173321135
        82           41.000000         0.297454264       324.450830458     -1103.188025659     -1102.751677464         8.162542626
        83           41.500000         0.304742876       332.400947835     -1103.190742758     -1102.751769538         8.119294919
        84           42.000000         0.329626656       359.543147703     -1103.195212688     -1102.751891258         8.147559512
        85           42.500000         0.337389420       368.010450021     -1103.197700801     -1102.751960168         8.111174610
        86           43.000000         0.317890905       346.742275020     -1103.198580495     -1102.751984811         8.138698466
        87           43.500000         0.317943688       346.799848985     -1103.200722876     -1102.752045634         8.161945626
        88           44.000000         0.323286584       352.627658449     -1103.203054714     -1102.752095186         8.143142305
        89           44.500000         0.315089422       343.686532837     -1103.202972599     -1102.752105765         8.165792458
        90           45.000000         0.298063848       325.115739622     -1103.198786671     -1102.752039238         9.860639758
        91           45.500000         0.292720129       319.287031493     -1103.193608858     -1102.751949354         7.341211233
        92           46.000000         0.282828469       308.497617815     -1103.190578967     -1102.751856508         7.378432434
        93           46.500000         0.289606588       315.890910088     -1103.188499532     -1102.751797661         7.326389607
        94           47.000000         0.279964169       305.373357641     -1103.189817767     -1102.751822079         7.369717520
        95           47.500000         0.285390442       311.292111174     -1103.192986539     -1102.751903795         7.356875896
        96           48.000000         0.295692473       322.529142191     -1103.190160495     -1102.751838435         7.344871812
        97           48.500000         0.299968401       327.193147531     -1103.185573634     -1102.751710222         7.387482468
        98           49.000000         0.294804036       321.560071591     -1103.181264793     -1102.751630177         7.368270487
        99           49.500000         0.291037659       317.451862548     -1103.179539221     -1102.751642544         8.182693209
       100           50.000000         0.281996879       307.590553290     -1103.180605256     -1102.751713848         9.795825459
       101           50.500000         0.288370937       314.543113087     -1103.183009038     -1102.751778591         7.379205331
       102           51.000000         0.296363443       323.261007918     -1103.186148247     -1102.751835618         7.402537972
       103           51.500000         0.291617829       318.084688638     -1103.185223650     -1102.751797134         7.387250878
       104           52.000000         0.290577267       316.949686786     -1103.182071678     -1102.751681968         7.343834098
       105           52.500000         0.286040549       312.001221545     -1103.179527506     -1102.751578299         7.361245591
       106           53.000000         0.284296270       310.098634210     -1103.183115076     -1102.751675719         7.340537764
       107           53.500000         0.288224464       314.383346234     -1103.188613796     -1102.751855427         7.397424132
       108           54.000000         0.286542720       312.548968757     -1103.193759032     -1102.752021759         7.359529424
       109           54.500000         0.294378803       321.096244840     -1103.198806575     -1102.752119088         7.325366728
       110           55.000000         0.286018361       311.977019730     -1103.198735187     -1102.752103831        10.561208762
       111           55.500000         0.288167358       314.321056532     -1103.195180138     -1102.752016190         7.335556559
       112           56.000000         0.298720572       325.832066739     -1103.188583953     -1102.751842572         8.177038547
       113           56.500000         0.286007287       311.964940759     -1103.183510501     -1102.751714385         8.214819048
       114           57.000000         0.294801461       321.557262998     -1103.178614933     -1102.751632223         8.175059337
       115           57.500000         0.295509159       322.329190886     -1103.178118906     -1102.751638904         8.165128864
       116           58.000000         0.296797040       323.733958029     -1103.177119752     -1102.751639988         8.132986199
       117           58.500000         0.291958073       318.455812005     -1103.180841943     -1102.751746930         8.141142339
       118           59.000000         0.302548770       330.007707620     -1103.184438117     -1102.751867497        11.111133046
       119           59.500000         0.316504377       345.229907535     -1103.184816271     -1102.751914356         7.393260624
       120           60.000000         0.309089485       337.142049796     -1103.182337215     -1102.751878686        10.210419506
       121           60.500000         0.304381155       332.006397889     -1103.180799247     -1102.751841536         7.338094201
       122           61.000000         0.311274501       339.525374866     -1103.180592634     -1102.751827657         7.351812251
       123           61.500000         0.306432322       334.243725364     -1103.179902496     -1102.751816937         8.144308556
       124           62.000000         0.307856344       335.796990447     -1103.179113206     -1102.751833164         8.176334083
       125           62.500000         0.303053504       330.558250846     -1103.180859868     -1102.751914290         7.420033801
       126           63.000000         0.294995950       321.769402874     -1103.181562718     -1102.751945437         7.370379668
       127           63.500000         0.299021741       326.160569690     -1103.181839407     -1102.751956966         7.440995336
       128           64.000000         0.287028836       313.079203923     -1103.178240369     -1102.751850481         7.373586640
       129           64.500000         0.279670907       305.053479058     -1103.174035790     -1102.751760411         7.335693687
       130           65.000000         0.281744570       307.315344501     -1103.171976376     -1102.751718512        10.223630209
       131           65.500000         0.280044376       305.460843944     -1103.172419574     -1102.751746537         7.322054856
       132           66.000000         0.288152241       314.304568376     -1103.176606330     -1102.751853266         7.342399053
       133           66.500000         0.295931057       322.789379819     -1103.179683141     -1102.751955705         7.361418616
       134           67.000000         0.305310321       333.019892882     -1103.181879529     -1102.752029440         7.341034278
       135           67.500000         0.311329417       339.585274748     -1103.183999372     -1102.752051602         7.404652577
       136           68.000000         0.314938569       343.521988845     -1103.184778936     -1102.751995146         7.406323548
       137           68.500000         0.309359271       337.436320463     -1103.183715707     -1102.751932334         7.357455377
       138           69.000000         0.291297924       317.735749464     -1103.183644450     -1102.752004153         7.269779187
       139           69.500000         0.284839582       310.691256491     -1103.182583801     -1102.752079116         7.310300559
       140           70.000000         0.293551728       320.194105391     -1103.182134832     -1102.752106891        10.597367618
       141           70.500000         0.278734691       304.032293131     -1103.176992486     -1102.752005081         7.361712597
       142           71.000000         0.289626257       315.912363556     -1103.169219582     -1102.751846842         7.351925950
       143           71.500000         0.264719927       288.745567536     -1103.163683686     -1102.751793810         7.357787721
       144           72.000000         0.284430195       310.244713389     -1103.160599771     -1102.751787919         7.324382208
       145           72.500000         0.292823469       319.399751062     -1103.160118100     -1102.751833560         7.344096001
       146           73.000000         0.286712586       312.734252128     -1103.162395856     -1102.751950751         7.368329838
       147           73.500000         0.289056148       315.290512557     -1103.166152708     -1102.752137794         7.315470420
       148           74.000000         0.299048754       326.190034530     -1103.167300060     -1102.752232441         7.361172702
       149           74.500000         0.302699165       330.171751977     -1103.162934307     -1102.752121991         7.332288224
       150           75.000000         0.303900482       331.482099010     -1103.154623361     -1102.751868690        10.865678176
       151           75.500000         0.292747981       319.317411884     -1103.147596510     -1102.751668144         8.153003205
       152           76.000000         0.287074045       313.128516861     -1103.142808702     -1102.751596361         7.332123484
       153           76.500000         0.287069331       313.123374214     -1103.140336553     -1102.751574350         7.353705425
       154           77.000000         0.268456117       292.820848687     -1103.138932693     -1102.751530311         7.354911428
       155           77.500000         0.263464351       287.376036793     -1103.141536377     -1102.751498168         8.139875714
       156           78.000000         0.258209280       281.644022302     -1103.147443770     -1102.751554111         8.147699799
       157           78.500000         0.271715233       296.375758088     -1103.157693721     -1102.751751219         8.135956053
       158           79.000000         0.289644221       315.931957910     -1103.168597867     -1102.752032421         7.359098542
       159           79.500000         0.306219910       334.012035417     -1103.174439839     -1102.752193140         7.341585256
       160           80.000000         0.309638794       337.741212524     -1103.175052978     -1102.752190901        10.947325394
       161           80.500000         0.284393184       310.204343589     -1103.169787247     -1102.752006697         7.354673676
       162           81.000000         0.282134598       307.740771012     -1103.163940058     -1102.751783686         7.332760192
       163           81.500000         0.288501569       314.685600470     -1103.160313315     -1102.751623104         7.341993786
       164           82.000000         0.283881391       309.646101710     -1103.161874514     -1102.751630940         7.341285922
       165           82.500000         0.277466423       302.648919301     -1103.165044594     -1102.751721943         7.352354288
       166           83.000000         0.278182146       303.429600140     -1103.172194729     -1102.751938184         7.375454832
       167           83.500000         0.289258205       315.510907515     -1103.180022567     -1102.752148452         7.360373609
       168           84.000000         0.296080642       322.952540871     -1103.182797792     -1102.752217323         7.355807025
       169           84.500000         0.289857113       316.164172517     -1103.182436789     -1102.752228716         7.351591852
       170           85.000000         0.295716787       322.555662022     -1103.180210644     -1102.752223403        10.460847940
       171           85.500000         0.271889177       296.565488764     -1103.174701894     -1102.752155927         7.353687443
       172           86.000000         0.268555443       292.929190147     -1103.170213596     -1102.752127455         8.121861663
       173           86.500000         0.276323426       301.402185089     -1103.166271110     -1102.752084018         8.166953232
       174           87.000000         0.274164541       299.047362394     -1103.160744991     -1102.751986458         7.405813202
       175           87.500000         0.255961851       279.192619109     -1103.158714931     -1102.751959416         7.408427346
       176           88.000000         0.257167887       280.508114341     -1103.157522134     -1102.751963313         7.428706989
       177           88.500000         0.263180199       287.066095732     -1103.157009255     -1102.751960823         7.468699656
       178           89.000000         0.272113110       296.809745802     -1103.159278015     -1102.752014335         8.217301719
       179           89.500000         0.286592148       312.602883518     -1103.164688575     -1102.752137773         7.432797402
       180           90.000000         0.299442733       326.619770565     -1103.171145867     -1102.752260359        11.255743757
       181           90.500000         0.309605550       337.704951811     -1103.173830980     -1102.752279299         7.407283764
       182           91.000000         0.296951352       323.902274699     -1103.175540789     -1102.752239344         7.407658011
       183           91.500000         0.307959534       335.909545778     -1103.172711310     -1102.752062197         7.446879577
       184           92.000000         0.296682343       323.608851436     -1103.169137902     -1102.751872793         7.409037247
       185           92.500000         0.282824771       308.493583225     -1103.168540925     -1102.751823751         7.413104028
       186           93.000000         0.304702824       332.357260937     -1103.170663531     -1102.751879343         7.454823654
       187           93.500000         0.302460920       329.911883836     -1103.176096503     -1102.752006286         7.463648580
       188           94.000000         0.310780841       338.986910514     -1103.181951229     -1102.752134038         7.345686980
       189           94.500000         0.307933086       335.880696836     -1103.184594031     -1102.752182735         7.385125812
       190           95.000000         0.302217846       329.646749032     -1103.184862719     -1102.752146005        11.017133456
       191           95.500000         0.292297377       318.825911453     -1103.182321508     -1102.752047536         7.428264257
       192           96.000000         0.282672232       308.327200668     -1103.179168864     -1102.751960223         7.422482636
       193           96.500000         0.281678633       307.243424028     -1103.177793851     -1102.751938109         7.383864932
       194           97.000000         0.274678220       299.607662015     -1103.181270131     -1102.752008980         7.432502169
       195           97.500000         0.289562437       315.842751416     -1103.184538417     -1102.752041404         7.413201105
       196           98.000000         0.292235214       318.758106315     -1103.187730302     -1102.752062217         7.413402077
       197           98.500000         0.289425055       315.692901437     -1103.189074123     -1102.752081811         7.410249144
       198           99.000000         0.277825631       303.040728378     -1103.190278141     -1102.752113851         7.413940623
       199           99.500000         0.274041205       298.912832517     -1103.189591544     -1102.752135642         7.451527588
       200          100.000000         0.282935740       308.614624420     -1103.186717414     -1102.752090012        11.850230370
       201          100.500000         0.273023936       297.803237225     -1103.182955468     -1102.752004875         7.423995651
       202          101.000000         0.280072319       305.491322517     -1103.182176549     -1102.751987984         7.389954858
       203          101.500000         0.288334484       314.503351559     -1103.182431351     -1102.751954594         7.390102029
       204          102.000000         0.299851888       327.066059669     -1103.184325859     -1102.751922557         7.412183885
       205          102.500000         0.313021392       341.430811617     -1103.189222930     -1102.751976729         7.429388653
       206          103.000000         0.317876464       346.726523140     -1103.196293903     -1102.752169063         7.407869630
       207          103.500000         0.310944732       339.165676082     -1103.200507526     -1102.752298368         7.432086151
       208          104.000000         0.316415006       345.132425773     -1103.199634502     -1102.752293277         7.417823885
       209          104.500000         0.306052031       333.828919809     -1103.196905994     -1102.752194894         7.342913251
       210          105.000000         0.300055041       327.287650481     -1103.192631490     -1102.752097762         9.837291442
       211          105.500000         0.302952194       330.447745889     -1103.186813365     -1102.751915478         7.408359043
       212          106.000000         0.292671347       319.233822322     -1103.185319288     -1102.751856757         7.418921921
       213          106.500000         0.293303258       319.923084591     -1103.186094129     -1102.751872381         7.401065759
       214          107.000000         0.302059498       329.474029781     -1103.189028392     -1102.751963343         7.382215641
       215          107.500000         0.294646170       321.387877506     -1103.194538229     -1102.752106640         7.418473847
       216          108.000000         0.302916920       330.409269932     -1103.199838742     -1102.752236814         7.398702461
       217          108.500000         0.315593668       344.236543279     -1103.203093701     -1102.752281842         7.405548412
       218          109.000000         0.296841898       323.782886908     -1103.203548277     -1102.752294503         7.400871970
       219          109.500000         0.295926637       322.784558394     -1103.202031052     -1102.752291640         7.387918215
       220          110.000000         0.304324513       331.944614495     -1103.197840808     -1102.752182042        11.594084445
       221          110.500000         0.291309907       317.748819221     -1103.192490001     -1102.752037013         7.392629903
       222          111.000000         0.277284640       302.450637387     -1103.186467123     -1102.751879596         7.404617060
       223          111.500000         0.276017934       301.068967217     -1103.182274105     -1102.751774551         7.430332579
       224          112.000000         0.284282317       310.083415132     -1103.183355329     -1102.751832322         7.370609466
       225          112.500000         0.307010893       334.874807285     -1103.188573542     -1102.751983579         7.436400376
       226          113.000000         0.302116823       329.536558033     -1103.192040898     -1102.752045315         7.393432789
       227          113.500000         0.318149238       347.024054327     -1103.195904264     -1102.752102456         7.406155169