ITEM: TIMESTEP
100000
ITEM: NUMBER OF ATOMS
400
ITEM: BOX BOUNDS pp pp pp
0.0000000000000000e+00 2.8284271247461902e+01
0.0000000000000000e+00 2.8284271247461902e+01
-7.0710678118654757e-01 7.0710678118654757e-01
ITEM: ATOMS id type xs ys zs
393 1 0.198883 0.00831091 0.5
380 1 0.225122 0.0453388 0.5
288 1 0.336322 0.81883 0.5
139 1 0.0895783 0.10993 0.5
313 1 0.544552 0.123219 0.5
145 1 0.63919 0.974192 0.5
242 1 0.70871 0.827524 0.5
172 1 0.729776 0.924813 0.5
388 1 0.893881 0.98515 0.5
383 1 0.0533496 0.939828 0.5
239 1 0.814662 0.262425 0.5
382 1 0.155256 0.186084 0.5
179 1 0.627411 0.163459 0.5
304 1 0.800252 0.23088 0.5
247 1 0.153111 0.0691511 0.5
99 1 0.0843133 0.152026 0.5
91 1 0.286744 0.990059 0.5
397 1 0.299551 0.224412 0.5
40 1 0.348019 0.225889 0.5
285 1 0.352047 0.0533573 0.5
118 1 0.388956 0.153029 0.5
266 1 0.682485 0.934179 0.5
14 1 0.806212 0.131693 0.5
157 1 0.76031 0.901102 0.5
209 1 0.79589 0.979985 0.5
375 1 0.0506712 0.0743808 0.5
64 1 0.3172 0.0620354 0.5
66 1 0.548854 0.0769798 0.5
319 1 0.451678 0.117445 0.5
219 1 0.55766 0.274501 0.5
234 1 0.586662 0.903003 0.5
187 1 0.616239 0.921948 0.5
341 1 0.171379 0.972649 0.5
274 1 0.0284301 0.198237 0.5
10 1 0.188295 0.111017 0.5
192 1 0.0894042 0.226646 0.5
114 1 0.470336 0.0664439 0.5
12 1 0.326956 0.144099 0.5
89 1 0.695866 0.782971 0.5
381 1 0.617757 0.0432873 0.5
18 1 0.784227 0.0363875 0.5
238 1 0.865025 0.0783238 0.5
93 1 0.112024 0.0224651 0.5
20 1 0.15239 0.0267393 0.5
8 1 0.974859 0.185424 0.5
67 1 0.26662 0.170326 0.5
376 1 0.356385 0.190425 0.5
88 1 0.484756 0.15528 0.5
289 1 0.566555 0.962173 0.5
31 1 0.789494 0.932895 0.5
82 1 0.944406 0.0843149 0.5
121 1 0.175691 0.265111 0.5
138 1 0.154349 0.14197 0.5
330 1 0.306513 0.181472 0.5
215 1 0.510549 0.0880021 0.5
163 1 0.414409 0.987311 0.5
183 1 0.455301 0.342155 0.5
328 1 0.492651 0.21539 0.5
264 1 0.580518 0.0965594 0.5
155 1 0.739789 0.0480418 0.5
147 1 0.869944 0.137639 0.5
262 1 0.869136 0.186426 0.5
302 1 0.0158649 0.10286 0.5
248 1 0.212477 0.402784 0.5
231 1 0.279188 0.25368 0.5
101 1 0.41825 0.186942 0.5
30 1 0.516691 0.254395 0.5
324 1 0.471877 0.0015282 0.5
182 1 0.719458 0.215729 0.5
267 1 0.831241 0.10681 0.5
178 1 0.978897 0.119521 0.5
124 1 0.141591 0.235594 0.5
95 1 0.218848 0.239052 0.5
107 1 0.143927 0.290791 0.5
1 1 0.382637 0.227534 0.5
283 1 0.482731 0.430092 0.5
6 1 0.54209 0.178979 0.5
33 1 0.535755 0.0349465 0.5
53 1 0.893963 0.239778 0.5
83 1 0.903174 0.172283 0.5
280 1 0.997713 0.32886 0.5
79 1 0.214471 0.277355 0.5
386 1 0.154127 0.340606 0.5
253 1 0.40921 0.120891 0.5
333 1 0.434206 0.27962 0.5
398 1 0.574335 0.203435 0.5
347 1 0.787808 0.163567 0.5
149 1 0.0566344 0.0184246 0.5
300 1 0.0979488 0.299504 0.5
153 1 0.190011 0.311025 0.5
390 1 0.116333 0.367092 0.5
249 1 0.269604 0.362468 0.5
287 1 0.471317 0.297989 0.5
146 1 0.539092 0.215428 0.5
260 1 0.65579 0.0532046 0.5
131 1 0.784937 0.0889241 0.5
252 1 0.900746 0.276994 0.5
60 1 0.751916 0.160507 0.5
298 1 0.898231 0.0630799 0.5
366 1 0.111923 0.45904 0.5
374 1 0.129335 0.492837 0.5
357 1 0.287389 0.334606 0.5
75 1 0.354039 0.302315 0.5
315 1 0.461253 0.200348 0.5
29 1 0.699326 0.151377 0.5
2 1 0.796456 0.315296 0.5
297 1 0.608738 0.208576 0.5
345 1 0.910333 0.338799 0.5
58 1 0.979736 0.248918 0.5
228 1 0.105038 0.262551 0.5
103 1 0.298522 0.489095 0.5
150 1 0.328386 0.258362 0.5
41 1 0.240057 0.325473 0.5
243 1 0.435314 0.47222 0.5
108 1 0.901188 0.100923 0.5
188 1 0.00683332 0.293938 0.5
241 1 0.935343 0.124688 0.5
344 1 0.361095 0.451187 0.5
211 1 0.343059 0.391647 0.5
24 1 0.043978 0.322335 0.5
47 1 0.504331 0.489289 0.5
301 1 0.653232 0.135098 0.5
22 1 0.666367 0.305031 0.5
136 1 0.705383 0.384582 0.5
51 1 0.654801 0.249879 0.5
13 1 0.68831 0.264242 0.5
377 1 0.783685 0.280911 0.5
311 1 0.955827 0.286987 0.5
346 1 0.404407 0.402476 0.5
37 1 0.527774 0.421222 0.5
11 1 0.666101 0.0202093 0.5
180 1 0.601992 0.255578 0.5
322 1 0.0131397 0.369265 0.5
308 1 0.0423824 0.625962 0.5
226 1 0.921782 0.301454 0.5
176 1 0.253893 0.409777 0.5
152 1 0.334241 0.336653 0.5
236 1 0.402106 0.260806 0.5
17 1 0.394547 0.298953 0.5
134 1 0.546354 0.513622 0.5
43 1 0.470355 0.381164 0.5
224 1 0.740343 0.262457 0.5
38 1 0.901028 0.541997 0.5
210 1 0.884314 0.316619 0.5
116 1 0.836859 0.147464 0.5
363 1 0.020728 0.413024 0.5
199 1 0.435178 0.386787 0.5
59 1 0.406731 0.332331 0.5
317 1 0.619825 0.353658 0.5
73 1 0.594183 0.319737 0.5
200 1 0.704254 0.30558 0.5
292 1 0.855319 0.294443 0.5
360 1 0.755231 0.224627 0.5
277 1 0.873294 0.423843 0.5
282 1 0.166192 0.567422 0.5
127 1 0.131795 0.636284 0.5
86 1 0.16166 0.374412 0.5
96 1 0.466868 0.515394 0.5
160 1 0.485366 0.560474 0.5
232 1 0.519168 0.369557 0.5
225 1 0.632625 0.389657 0.5
399 1 0.773372 0.350425 0.5
334 1 0.840606 0.360757 0.5
186 1 0.0736415 0.272773 0.5
372 1 0.30487 0.450564 0.5
325 1 0.461562 0.642473 0.5
361 1 0.67421 0.467775 0.5
46 1 0.559218 0.334603 0.5
87 1 0.557573 0.586103 0.5
295 1 0.783452 0.478382 0.5
102 1 0.894909 0.370668 0.5
227 1 0.98016 0.424936 0.5
230 1 0.142378 0.537884 0.5
273 1 0.211611 0.458051 0.5
120 1 0.430734 0.508046 0.5
44 1 0.254322 0.489462 0.5
76 1 0.523048 0.548159 0.5
279 1 0.560023 0.435548 0.5
50 1 0.711409 0.417402 0.5
254 1 0.742841 0.397614 0.5
351 1 0.920414 0.455875 0.5
309 1 0.0535635 0.243423 0.5
115 1 0.04068 0.586386 0.5
332 1 0.21123 0.494948 0.5
161 1 0.430545 0.425357 0.5
312 1 0.554006 0.470388 0.5
80 1 0.348487 0.662089 0.5
158 1 0.570387 0.389711 0.5
45 1 0.826184 0.411892 0.5
263 1 0.918954 0.41839 0.5
320 1 0.960794 0.396367 0.5
78 1 0.0283919 0.656662 0.5
198 1 0.243274 0.646084 0.5
185 1 0.377108 0.562674 0.5
212 1 0.36446 0.595301 0.5
81 1 0.664387 0.50635 0.5
265 1 0.636909 0.454861 0.5
26 1 0.697875 0.34574 0.5
281 1 0.97568 0.459946 0.5
269 1 0.964672 0.357255 0.5
268 1 0.230906 0.553824 0.5
310 1 0.164424 0.62686 0.5
218 1 0.22779 0.605129 0.5
56 1 0.373654 0.515651 0.5
255 1 0.60005 0.46538 0.5
69 1 0.396719 0.482929 0.5
284 1 0.338816 0.626229 0.5
335 1 0.278674 0.588812 0.5
276 1 0.526882 0.64632 0.5
129 1 0.795614 0.579957 0.5
35 1 0.0663165 0.82995 0.5
92 1 0.0353188 0.466215 0.5
25 1 0.226808 0.711406 0.5
329 1 0.341871 0.548504 0.5
223 1 0.30787 0.725447 0.5
137 1 0.656943 0.550356 0.5
217 1 0.693732 0.533517 0.5
61 1 0.860458 0.466216 0.5
194 1 0.0872094 0.403349 0.5
190 1 0.710714 0.450773 0.5
144 1 0.279125 0.668954 0.5
205 1 0.444297 0.544603 0.5
395 1 0.428637 0.598695 0.5
369 1 0.59829 0.414374 0.5
184 1 0.78837 0.413853 0.5
140 1 0.715521 0.572325 0.5
27 1 0.0746918 0.467101 0.5
379 1 0.998294 0.684026 0.5
229 1 0.140914 0.679985 0.5
105 1 0.475179 0.608326 0.5
72 1 0.609072 0.525988 0.5
112 1 0.511543 0.612018 0.5
314 1 0.73296 0.537331 0.5
367 1 0.91251 0.501141 0.5
159 1 0.737702 0.47532 0.5
368 1 0.92503 0.575799 0.5
119 1 0.160503 0.720129 0.5
221 1 0.0531118 0.706396 0.5
143 1 0.297556 0.549073 0.5
111 1 0.327438 0.515735 0.5
52 1 0.217171 0.750486 0.5
207 1 0.296189 0.632691 0.5
94 1 0.752749 0.431631 0.5
181 1 0.62218 0.571083 0.5
142 1 0.674577 0.400507 0.5
203 1 0.997867 0.537893 0.5
321 1 0.982198 0.748579 0.5
214 1 0.959805 0.515831 0.5
350 1 0.959195 0.890809 0.5
21 1 0.0803151 0.772304 0.5
336 1 0.278051 0.752702 0.5
257 1 0.313105 0.678287 0.5
23 1 0.419331 0.63156 0.5
387 1 0.603689 0.628771 0.5
32 1 0.72231 0.619581 0.5
135 1 0.734208 0.349122 0.5
151 1 0.813483 0.660569 0.5
126 1 0.0988787 0.8032 0.5
191 1 0.963101 0.707219 0.5
156 1 0.0919596 0.874089 0.5
28 1 0.216661 0.674038 0.5
337 1 0.174185 0.662945 0.5
128 1 0.370071 0.786108 0.5
62 1 0.565221 0.829742 0.5
235 1 0.680869 0.668729 0.5
36 1 0.814916 0.542379 0.5
275 1 0.762089 0.505819 0.5
364 1 0.864219 0.563294 0.5
117 1 0.986268 0.626649 0.5
174 1 0.0937236 0.58452 0.5
133 1 0.0947818 0.650736 0.5
293 1 0.26184 0.700538 0.5
348 1 0.24813 0.523871 0.5
97 1 0.207824 0.64179 0.5
392 1 0.379919 0.632283 0.5
342 1 0.642452 0.719567 0.5
245 1 0.681269 0.619908 0.5
323 1 0.568078 0.632121 0.5
358 1 0.365403 0.851994 0.5
340 1 0.135685 0.86823 0.5
396 1 0.565008 0.66988 0.5
370 1 0.513517 0.690546 0.5
258 1 0.917606 0.609457 0.5
371 1 0.753779 0.56634 0.5
164 1 0.998017 0.815316 0.5
167 1 0.861607 0.965802 0.5
100 1 0.18555 0.695107 0.5
307 1 0.491759 0.78318 0.5
318 1 0.383969 0.683788 0.5
362 1 0.58998 0.728719 0.5
154 1 0.7201 0.704369 0.5
290 1 0.762507 0.64598 0.5
213 1 0.89795 0.639102 0.5
195 1 0.806933 0.842925 0.5
130 1 0.918544 0.828485 0.5
316 1 0.0343436 0.805142 0.5
4 1 0.107315 0.983693 0.5
331 1 0.30319 0.777511 0.5
359 1 0.576242 0.769208 0.5
233 1 0.351092 0.707801 0.5
256 1 0.63073 0.606535 0.5
270 1 0.930383 0.746227 0.5
349 1 0.209482 0.839637 0.5
90 1 0.466576 0.755759 0.5
84 1 0.613592 0.676688 0.5
326 1 0.52998 0.831707 0.5
54 1 0.841749 0.815001 0.5
365 1 0.845376 0.724827 0.5
250 1 0.819521 0.697173 0.5
125 1 0.835214 0.628216 0.5
132 1 0.0425145 0.902473 0.5
384 1 0.152763 0.832907 0.5
170 1 0.0150582 0.726126 0.5
208 1 0.20798 0.805672 0.5
7 1 0.430039 0.781373 0.5
294 1 0.499629 0.722036 0.5
193 1 0.441627 0.701058 0.5
389 1 0.419552 0.672435 0.5
204 1 0.485115 0.879478 0.5
222 1 0.545134 0.721325 0.5
16 1 0.858126 0.525781 0.5
338 1 0.919038 0.704804 0.5
189 1 0.0165585 0.956569 0.5
272 1 0.837681 0.878242 0.5
261 1 0.30117 0.81976 0.5
378 1 0.400528 0.807455 0.5
291 1 0.467149 0.8359 0.5
85 1 0.414135 0.723756 0.5
286 1 0.944486 0.630031 0.5
65 1 0.883526 0.59567 0.5
42 1 0.983679 0.942654 0.5
63 1 0.0166597 0.877627 0.5
15 1 0.0443496 0.85766 0.5
49 1 0.860947 0.846949 0.5
122 1 0.334068 0.908747 0.5
19 1 0.374385 0.8948 0.5
373 1 0.333805 0.993866 0.5
70 1 0.533113 0.791957 0.5
296 1 0.525978 0.933415 0.5
339 1 0.548861 0.874331 0.5
201 1 0.612098 0.754752 0.5
55 1 0.645609 0.764407 0.5
77 1 0.675075 0.738762 0.5
109 1 0.12557 0.727236 0.5
57 1 0.966258 0.83683 0.5
343 1 0.244502 0.99214 0.5
141 1 0.446542 0.904315 0.5
5 1 0.881316 0.812365 0.5
299 1 0.839066 0.776788 0.5
123 1 0.763199 0.691287 0.5
391 1 0.956 0.798738 0.5
110 1 0.90058 0.769018 0.5
165 1 0.942985 0.996363 0.5
104 1 0.138511 0.910846 0.5
271 1 0.189926 0.181527 0.5
196 1 0.398182 0.0325454 0.5
278 1 0.350616 0.753959 0.5
259 1 0.317768 0.110494 0.5
171 1 0.440834 0.937422 0.5
148 1 0.527002 0.974758 0.5
106 1 0.40189 0.933094 0.5
162 1 0.910521 0.877351 0.5
305 1 0.105791 0.941641 0.5
166 1 0.246237 0.201701 0.5
113 1 0.189686 0.930293 0.5
9 1 0.244265 0.895907 0.5
39 1 0.343695 0.955698 0.5
98 1 0.429286 0.0934019 0.5
202 1 0.424874 0.877987 0.5
168 1 0.741404 0.75604 0.5
356 1 0.734688 0.855289 0.5
177 1 0.650419 0.845233 0.5
400 1 0.90625 0.671208 0.5
74 1 0.835836 0.938061 0.5
353 1 0.0145341 0.037744 0.5
355 1 0.0639497 0.979087 0.5
394 1 0.23107 0.104105 0.5
175 1 0.269837 0.128308 0.5
197 1 0.594309 0.00323861 0.5
354 1 0.712719 0.738431 0.5
216 1 0.771593 0.862342 0.5
169 1 0.196607 0.0768356 0.5
48 1 0.270924 0.858144 0.5
173 1 0.932162 0.19044 0.5
206 1 0.281539 0.947332 0.5
68 1 0.278023 0.899152 0.5
327 1 0.286545 0.0786884 0.5
244 1 0.435667 0.0288953 0.5
34 1 0.613839 0.790798 0.5
246 1 0.62411 0.876903 0.5
3 1 0.584434 0.858413 0.5
352 1 0.926224 0.933422 0.5
240 1 0.788512 0.773189 0.5
237 1 0.958495 0.0449821 0.5
220 1 0.122992 0.0943438 0.5
385 1 0.0800358 0.0509567 0.5
303 1 0.679534 0.87213 0.5
251 1 0.764208 0.996019 0.5
71 1 0.717439 0.965118 0.5
306 1 0.811567 0.0119815 0.5
