LAMMPS (15 Sep 2022)
OMP_NUM_THREADS environment is not set. Defaulting to 1 thread. (src/comm.cpp:98)
  using 1 OpenMP thread(s) per MPI task
# 2d WCA system, random initial configuration

#variable density equal 0.5
variable initial_temperature equal 3.0
variable final_temperature equal 0.1
variable dt equal 0.01
variable tau equal 100*${dt}
variable tau equal 100*0.01
variable thermo_time equal 50000*${dt}
variable thermo_time equal 50000*0.01
variable equil_steps equal 50000
variable run_steps equal 100000

units           lj
atom_style      atomic
dimension       2

lattice         sq ${density}
lattice         sq 0.5
Lattice spacing in x,y,z = 1.4142136 1.4142136 1.4142136
region          box block 0 20 0 20 -0.5 0.5
# number of atom types
create_box      1 box
Created orthogonal box = (0 0 -0.70710678) to (28.284271 28.284271 0.70710678)
  1 by 1 by 1 MPI processor grid
create_atoms    1 box
Created 400 atoms
  using lattice units in orthogonal box = (0 0 -0.70710678) to (28.284271 28.284271 0.70710678)
  create_atoms CPU = 0.000 seconds
mass 1 1.0

velocity all create ${initial_temperature} 12345
velocity all create 3 12345

pair_style      lj/cut 1.0
#type_1 type_2 epsilon sigma cutoff
pair_coeff      1 1 10.0 0.89089871814 1.0
pair_modify shift yes

timestep ${dt}
timestep 0.01
thermo ${thermo_time}
thermo 500

fix 1 all nvt temp ${initial_temperature} ${initial_temperature} ${tau}
fix 1 all nvt temp 3 ${initial_temperature} ${tau}
fix 1 all nvt temp 3 3 ${tau}
fix 1 all nvt temp 3 3 1
run ${equil_steps}
run 50000
Generated 0 of 0 mixed pair_coeff terms from geometric mixing rule
Neighbor list info ...
  update: every = 1 steps, delay = 0 steps, check = yes
  max neighbors/atom: 2000, page size: 100000
  master list distance cutoff = 1.3
  ghost atom cutoff = 1.3
  binsize = 0.65, bins = 44 44 3
  1 neighbor lists, perpetual/occasional/extra = 1 0 0
  (1) pair lj/cut, perpetual
      attributes: half, newton on
      pair build: half/bin/atomonly/newton
      stencil: half/bin/2d
      bin: standard
Per MPI rank memory allocation (min/avg/max) = 3.059 | 3.059 | 3.059 Mbytes
   Step          Temp          E_pair         E_mol          TotEng         Press     
         0   3              0              0              2.9925         1.49625      
       500   2.9392821      0.20442969     0              3.1363635      3.4155072    
      1000   2.9456397      0.19092735     0              3.129203       3.4536175    
      1500   2.8670936      0.23770336     0              3.0976292      3.7706847    
      2000   3.0192609      0.1775136      0              3.1892263      3.4367002    
      2500   2.9520526      0.1721094      0              3.1167819      3.1937199    
      3000   2.8959575      0.084477555    0              2.9731952      2.368217     
      3500   2.6207598      0.2012373      0              2.8154452      3.274353     
      4000   2.8101669      0.24042087     0              3.0435624      3.565872     
      4500   2.9873252      0.20454168     0              3.1843986      3.5066288    
      5000   3.0958582      0.23403376     0              3.3221523      3.7158551    
      5500   3.0916402      0.2916837      0              3.3755948      4.1709924    
      6000   3.2073427      0.15688862     0              3.3562129      3.3335833    
      6500   3.066322       0.26342827     0              3.3220845      3.8107917    
      7000   3.1553285      0.21484984     0              3.3622901      3.6598786    
      7500   3.0884709      0.25312969     0              3.3338794      3.913673     
      8000   3.0771848      0.31481917     0              3.384311       4.3599211    
      8500   2.9471897      0.29362187     0              3.2334436      4.1159472    
      9000   3.1069955      0.17361072     0              3.2728387      3.3793685    
      9500   2.6513501      0.21568658     0              2.8604083      3.4713537    
     10000   2.808108       0.14567838     0              2.9467661      3.034056     
     10500   2.9962486      0.17552996     0              3.164288       3.2003379    
     11000   2.9276332      0.21001401     0              3.1303281      3.5889766    
     11500   2.9782049      0.25306161     0              3.223821       3.8407422    
     12000   3.1578535      0.19966317     0              3.3496221      3.6241443    
     12500   3.1294953      0.3458756      0              3.4675472      4.4483245    
     13000   3.0031443      0.20251938     0              3.1981558      3.3654518    
     13500   2.9441941      0.21699809     0              3.1538317      3.6213424    
     14000   2.9002044      0.17367788     0              3.0666318      3.2685009    
     14500   2.800603       0.15306225     0              2.9466637      3.0775862    
     15000   2.7434026      0.28853378     0              3.0250779      3.9860495    
     15500   3.1587247      0.16188022     0              3.3127081      3.310226     
     16000   3.1432784      0.23690166     0              3.3723219      3.9446504    
     16500   3.1166146      0.14873561     0              3.2575587      3.2102669    
     17000   3.0225464      0.29792631     0              3.3129163      4.1131231    
     17500   3.1826007      0.13148456     0              3.3061287      2.969608     
     18000   3.143963       0.13961821     0              3.2757213      3.0946193    
     18500   2.8759903      0.30551077     0              3.1743111      4.2798917    
     19000   2.8494389      0.18002155     0              3.0223369      3.2229405    
     19500   2.8779875      0.1817679      0              3.0525604      3.3846348    
     20000   2.8747562      0.17412485     0              3.0416941      3.1267253    
     20500   2.9214045      0.20795155     0              3.1220526      3.5221556    
     21000   3.3306454      0.14306294     0              3.4653817      3.1928773    
     21500   3.2719347      0.29048798     0              3.5542429      4.3608938    
     22000   3.2393405      0.15915889     0              3.3904011      3.4272206    
     22500   2.9946351      0.27160253     0              3.2587511      3.9271718    
     23000   3.115567       0.20964083     0              3.3174189      3.6804399    
     23500   3.0186814      0.20483027     0              3.2159649      3.6098871    
     24000   2.9747238      0.22588703     0              3.193174       3.7518696    
     24500   2.7862971      0.11332761     0              2.892659       2.7751515    
     25000   2.7429477      0.12270626     0              2.8587966      2.7318857    
     25500   2.8805479      0.21465742     0              3.088004       3.663651     
     26000   2.9408855      0.21661622     0              3.1501495      3.4879155    
     26500   2.9745056      0.17764436     0              3.1447137      3.1846798    
     27000   3.0509223      0.18088829     0              3.2241833      3.3682228    
     27500   3.1560986      0.22935407     0              3.3775624      3.749308     
     28000   3.3423502      0.25781514     0              3.5918094      4.0866142    
     28500   3.2152331      0.22987717     0              3.4370721      3.7692012    
     29000   3.1064427      0.19492958     0              3.2936062      3.5123182    
     29500   3.1293334      0.19362598     0              3.315136       3.5421774    
     30000   3.1525797      0.33066735     0              3.4753656      4.2369194    
     30500   3.3873216      0.20690827     0              3.5857615      3.7725552    
     31000   2.9574993      0.23287779     0              3.1829834      3.8776621    
     31500   2.9071563      0.24820701     0              3.1480954      3.6055056    
     32000   2.8532461      0.25958501     0              3.105698       3.8587777    
     32500   2.8184265      0.16983879     0              2.9812192      3.3301559    
     33000   2.9840745      0.20512316     0              3.1817375      3.444876     
     33500   2.909933       0.16331551     0              3.0659737      3.2711231    
     34000   2.9044498      0.21969665     0              3.1168853      3.6842287    
     34500   2.745787       0.17022167     0              2.9091442      3.0098652    
     35000   3.0618543      0.21229702     0              3.2664966      3.4755644    
     35500   3.0507742      0.25890215     0              3.3020494      3.8870687    
     36000   3.1314453      0.24874535     0              3.372362       3.8451873    
     36500   3.0787228      0.19140384     0              3.2624298      3.4545963    
     37000   3.2588407      0.20292811     0              3.4536218      3.7446916    
     37500   3.0707084      0.22850244     0              3.2915341      3.7966914    
     38000   3.0161688      0.24068795     0              3.2493163      3.7389102    
     38500   2.9447286      0.19916707     0              3.1365339      3.5076678    
     39000   2.8699768      0.22100862     0              3.0838105      3.6207042    
     39500   2.6997694      0.21071209     0              2.9037321      3.4368417    
     40000   2.7138824      0.14147106     0              2.8485688      2.8894407    
     40500   2.8767982      0.22961022     0              3.0992164      3.6429205    
     41000   3.0638052      0.17812268     0              3.2342683      3.4074348    
     41500   3.1637867      0.20529526     0              3.3611725      3.5293006    
     42000   3.1004145      0.18385441     0              3.2765179      3.3906536    
     42500   3.2018512      0.14763101     0              3.3414776      3.2826755    
     43000   3.1150669      0.20358006     0              3.3108593      3.577831     
     43500   2.9951942      0.25798321     0              3.2456895      3.8876382    
     44000   2.6428084      0.15570879     0              2.7919102      3.0280093    
     44500   2.8456889      0.14235194     0              2.9809266      3.0223929    
     45000   2.9366669      0.21336667     0              3.1426919      3.4871399    
     45500   2.9735208      0.18804825     0              3.1541353      3.3535508    
     46000   2.9684633      0.22255676     0              3.1835989      3.7249451    
     46500   2.9253552      0.19452433     0              3.1125661      3.4401044    
     47000   3.3200489      0.20685935     0              3.5186081      3.8536738    
     47500   3.1849293      0.31547283     0              3.4924398      4.3663999    
     48000   3.1535551      0.21097848     0              3.3566497      3.6492563    
     48500   3.0981134      0.23729514     0              3.3276633      3.673641     
     49000   3.0534266      0.15266713     0              3.1984601      3.1223777    
     49500   2.8906046      0.17088823     0              3.0542663      3.1392625    
     50000   2.8127331      0.17342756     0              2.9791288      3.1093315    
Loop time of 1.30483 on 1 procs for 50000 steps with 400 atoms

Performance: 33107727.215 tau/day, 38319.129 timesteps/s, 15.328 Matom-step/s
98.6% CPU use with 1 MPI tasks x 1 OpenMP threads

MPI task timing breakdown:
Section |  min time  |  avg time  |  max time  |%varavg| %total
---------------------------------------------------------------
Pair    | 0.25322    | 0.25322    | 0.25322    |   0.0 | 19.41
Neigh   | 0.61489    | 0.61489    | 0.61489    |   0.0 | 47.12
Comm    | 0.079302   | 0.079302   | 0.079302   |   0.0 |  6.08
Output  | 0.0050828  | 0.0050828  | 0.0050828  |   0.0 |  0.39
Modify  | 0.25562    | 0.25562    | 0.25562    |   0.0 | 19.59
Other   |            | 0.09671    |            |       |  7.41

Nlocal:            400 ave         400 max         400 min
Histogram: 1 0 0 0 0 0 0 0 0 0
Nghost:             80 ave          80 max          80 min
Histogram: 1 0 0 0 0 0 0 0 0 0
Neighs:            391 ave         391 max         391 min
Histogram: 1 0 0 0 0 0 0 0 0 0

Total # of neighbors = 391
Ave neighs/atom = 0.9775
Neighbor list builds = 16902
Dangerous builds = 0

unfix 1
dump           1 all atom ${run_steps} 2dWCA_T${final_temperature}_d${density}_N${run_steps}.lammpstrj
dump           1 all atom 100000 2dWCA_T${final_temperature}_d${density}_N${run_steps}.lammpstrj
dump           1 all atom 100000 2dWCA_T0.1_d${density}_N${run_steps}.lammpstrj
dump           1 all atom 100000 2dWCA_T0.1_d0.5_N${run_steps}.lammpstrj
dump           1 all atom 100000 2dWCA_T0.1_d0.5_N100000.lammpstrj
dump           2 all dcd ${thermo_time} 2dWCA_T${final_temperature}_d${density}_N${run_steps}.dcd
dump           2 all dcd 500 2dWCA_T${final_temperature}_d${density}_N${run_steps}.dcd
dump           2 all dcd 500 2dWCA_T0.1_d${density}_N${run_steps}.dcd
dump           2 all dcd 500 2dWCA_T0.1_d0.5_N${run_steps}.dcd
dump           2 all dcd 500 2dWCA_T0.1_d0.5_N100000.dcd
fix 1 all nvt temp ${initial_temperature} ${final_temperature} ${tau}
fix 1 all nvt temp 3 ${final_temperature} ${tau}
fix 1 all nvt temp 3 0.1 ${tau}
fix 1 all nvt temp 3 0.1 1

run ${run_steps}
run 100000
Generated 0 of 0 mixed pair_coeff terms from geometric mixing rule
Per MPI rank memory allocation (min/avg/max) = 3.087 | 3.087 | 3.087 Mbytes
   Step          Temp          E_pair         E_mol          TotEng         Press     
     50000   2.8127331      0.17342756     0              2.9791288      3.1093315    
     50500   2.8840966      0.28255151     0              3.1594379      3.9071714    
     51000   3.0288266      0.12274328     0              3.1439978      2.8762893    
     51500   3.0578954      0.18841699     0              3.2386676      3.5588731    
     52000   3.0665591      0.30662382     0              3.3655165      4.4077641    
     52500   2.9325954      0.25939904     0              3.184663       3.9726447    
     53000   2.810974       0.28731388     0              3.0912605      4.0892563    
     53500   3.0566941      0.15303886     0              3.2020912      3.1755194    
     54000   2.9630392      0.23858369     0              3.1942153      3.772551     
     54500   2.9528893      0.25994456     0              3.2054516      3.8435631    
     55000   2.9736513      0.24969734     0              3.2159145      3.8290485    
     55500   2.9094966      0.17398643     0              3.0762093      3.2235995    
     56000   2.8447489      0.25373708     0              3.0913741      3.7511485    
     56500   2.760565       0.16747501     0              2.9211386      3.0971367    
     57000   2.6977776      0.21502215     0              2.9060553      3.5115292    
     57500   2.7668186      0.11236899     0              2.8722705      2.7783466    
     58000   2.7296129      0.10458127     0              2.8273702      2.5747413    
     58500   2.8731818      0.13183035     0              2.9978292      2.817121     
     59000   2.9239412      0.21211519     0              3.1287466      3.6876946    
     59500   2.8169559      0.18828        0              2.9981935      3.4161879    
     60000   2.6655545      0.24899889     0              2.9078895      3.7295986    
     60500   2.5878413      0.17598268     0              2.7573544      3.0489955    
     61000   2.4585778      0.12845456     0              2.5808859      2.7391888    
     61500   2.6497287      0.14754568     0              2.7906501      2.9915067    
     62000   2.704494       0.16335061     0              2.8610834      3.0280571    
     62500   2.7089871      0.16150302     0              2.8637176      2.9780389    
     63000   2.6602253      0.18138075     0              2.8349555      3.0871655    
     63500   2.7642669      0.23911532     0              2.9964715      3.7109521    
     64000   2.8808432      0.27243896     0              3.1460801      3.9057124    
     64500   2.5463101      0.2563717      0              2.7963161      3.7114852    
     65000   2.5671989      0.1648854      0              2.7256663      2.9977586    
     65500   2.542701       0.13821945     0              2.6745637      2.8699449    
     66000   2.36715        0.15933994     0              2.520572       2.7164796    
     66500   2.5093436      0.15453323     0              2.6576035      3.1012951    
     67000   2.324872       0.20035906     0              2.5194188      3.1652943    
     67500   2.5331346      0.11797763     0              2.6447794      2.5444803    
     68000   2.3305686      0.15147526     0              2.4762174      2.8008021    
     68500   2.4457994      0.14655529     0              2.5862402      2.7385305    
     69000   2.351475       0.16700912     0              2.5126055      2.7921681    
     69500   2.4263506      0.18088188     0              2.6011666      3.0915471    
     70000   2.4570753      0.20232633     0              2.653259       3.143613     
     70500   2.6102554      0.17569809     0              2.7794278      3.0068687    
     71000   2.4514078      0.18595679     0              2.6312361      2.8905177    
     71500   2.3599706      0.18062459     0              2.5346953      2.8959005    
     72000   2.3791255      0.1262809      0              2.4994586      2.6276261    
     72500   2.3328333      0.13948962     0              2.4664908      2.6491691    
     73000   2.2277144      0.15011316     0              2.3722582      2.5900886    
     73500   2.2874626      0.1539613      0              2.4357053      2.8027095    
     74000   2.1951888      0.10805525     0              2.2977561      2.3728085    
     74500   2.2421928      0.17547682     0              2.4120642      2.8798046    
     75000   2.1163327      0.16902946     0              2.2800713      2.7733499    
     75500   2.2780534      0.13561141     0              2.4079697      2.753752     
     76000   2.3600046      0.17807331     0              2.5321779      2.9535367    
     76500   2.2261871      0.18619625     0              2.4068179      3.0701662    
     77000   2.2720021      0.19738481     0              2.4637069      3.0941878    
     77500   2.3815079      0.12654829     0              2.5021024      2.6403053    
     78000   2.3255961      0.18922959     0              2.5090117      2.9771041    
     78500   2.1080372      0.10224322     0              2.2050103      2.1449094    
     79000   2.1197091      0.16419033     0              2.2786001      2.6791824    
     79500   2.0597389      0.16712805     0              2.2217176      2.7323824    
     80000   2.1344868      0.12095638     0              2.250107       2.4024921    
     80500   2.0112929      0.10656797     0              2.1128326      2.2869102    
     81000   2.0570678      0.12469776     0              2.1766229      2.4065642    
     81500   2.0057298      0.1203357      0              2.1210512      2.3888151    
     82000   2.0582624      0.095430365    0              2.1485471      2.1717862    
     82500   1.9482475      0.12574356     0              2.0691204      2.4793127    
     83000   2.0656574      0.10129258     0              2.1617859      2.1702157    
     83500   2.1004725      0.13125788     0              2.2264792      2.4000381    
     84000   2.1588429      0.13616163     0              2.2896074      2.5028545    
     84500   2.0089647      0.16725899     0              2.1712012      2.7496734    
     85000   1.9706676      0.12292792     0              2.0886688      2.385212     
     85500   1.8977069      0.083194149    0              1.9761568      1.9581892    
     86000   1.9146977      0.11612211     0              2.0260331      2.2781058    
     86500   1.9178255      0.13450434     0              2.0475353      2.2960695    
     87000   2.0820464      0.11716797     0              2.1940092      2.4124121    
     87500   2.0050953      0.15147907     0              2.1515616      2.7061293    
     88000   2.0263239      0.090153219    0              2.1114113      2.01474      
     88500   1.8948861      0.16795953     0              2.0581084      2.734239     
     89000   1.956197       0.15551202     0              2.1068185      2.6243212    
     89500   2.1017959      0.15823456     0              2.2547759      2.6383046    
     90000   1.9449759      0.12991517     0              2.0700286      2.359995     
     90500   1.8130212      0.14888834     0              1.957377       2.5317909    
     91000   1.8100346      0.11472704     0              1.9202366      2.2110763    
     91500   1.7722229      0.10854284     0              1.8763352      2.1792196    
     92000   1.7121777      0.11722021     0              1.8251175      2.1947909    
     92500   1.7363192      0.09916776     0              1.8311462      1.9926645    
     93000   1.6654883      0.13804954     0              1.7993741      2.3570856    
     93500   1.6302325      0.12104328     0              1.7472002      2.2483587    
     94000   1.5549884      0.10871844     0              1.6598194      1.9704952    
     94500   1.5829976      0.090130138    0              1.6691703      1.8952793    
     95000   1.7084403      0.074251136    0              1.7784203      1.7619112    
     95500   1.7069555      0.1307834      0              1.8334715      2.2944538    
     96000   1.6993339      0.0956893      0              1.7907749      2.0176268    
     96500   1.7897414      0.070564177    0              1.8558313      1.7453246    
     97000   1.7513707      0.12680457     0              1.8737969      2.298185     
     97500   1.5974008      0.14909301     0              1.7425003      2.4134082    
     98000   1.6171978      0.10305835     0              1.7162132      2.1043888    
     98500   1.5720427      0.080601237    0              1.6487138      1.8389586    
     99000   1.5593434      0.058161684    0              1.6136067      1.6246474    
     99500   1.4704942      0.04391002     0              1.510728       1.4161846    
    100000   1.5042392      0.088844074    0              1.5893227      1.8508852    
    100500   1.5151217      0.086633899    0              1.5979678      1.7626898    
    101000   1.4469923      0.15146677     0              1.5948416      2.3669485    
    101500   1.4726551      0.10684914     0              1.5758226      1.9860958    
    102000   1.5999113      0.097817152    0              1.6937286      2.0469254    
    102500   1.6455228      0.10099198     0              1.742401       1.9485047    
    103000   1.4727709      0.07389231     0              1.5429813      1.7113531    
    103500   1.4863109      0.052571864    0              1.535167       1.5228649    
    104000   1.4137295      0.08265618     0              1.4928513      1.8291764    
    104500   1.4172783      0.051811812    0              1.4655469      1.4661036    
    105000   1.2994307      0.092202094    0              1.3883843      1.8406612    
    105500   1.2695271      0.116592       0              1.3829452      1.9509857    
    106000   1.3500045      0.087865516    0              1.434495       1.6028231    
    106500   1.4432761      0.08380865     0              1.5234766      1.7905821    
    107000   1.4009967      0.10490524     0              1.5023995      1.8900507    
    107500   1.3733078      0.077264658    0              1.4471392      1.6686326    
    108000   1.3651455      0.07471673     0              1.4364494      1.6379093    
    108500   1.3187497      0.095346415    0              1.4107992      1.6816931    
    109000   1.2738234      0.052184944    0              1.3228238      1.2991098    
    109500   1.2495078      0.072828053    0              1.3192121      1.6032628    
    110000   1.2267342      0.071912803    0              1.2955802      1.5668447    
    110500   1.1455536      0.06181844     0              1.2045082      1.4541667    
    111000   1.0620312      0.067395956    0              1.1267721      1.3873917    
    111500   1.138614       0.073480362    0              1.2092479      1.4828994    
    112000   1.1959589      0.054480503    0              1.2474495      1.3594935    
    112500   1.1472391      0.058996332    0              1.2033673      1.3468336    
    113000   1.1724785      0.056922815    0              1.2264701      1.4485539    
    113500   1.0981501      0.061411174    0              1.1568159      1.4129122    
    114000   1.1253117      0.059327407    0              1.1818258      1.3666766    
    114500   1.0873969      0.080317671    0              1.164996       1.4909997    
    115000   1.1155887      0.070624812    0              1.1834246      1.4588808    
    115500   1.1809536      0.05548645     0              1.2334877      1.3747181    
    116000   1.0856935      0.070426585    0              1.1534058      1.4757176    
    116500   1.0740639      0.041225695    0              1.1126045      1.1553501    
    117000   1.0455541      0.063358759    0              1.106299       1.4340047    
    117500   1.0073581      0.036590749    0              1.0414305      1.0809518    
    118000   1.0015975      0.066322828    0              1.0654163      1.401468     
    118500   0.98011767     0.043985015    0              1.0216524      1.145073     
    119000   0.96257549     0.034371551    0              0.99454061     1.1026851    
    119500   1.0298815      0.056345402    0              1.0836522      1.348086     
    120000   1.0076766      0.057946646    0              1.0631041      1.3131362    
    120500   0.99578734     0.053072444    0              1.0463703      1.1715405    
    121000   0.93047285     0.055440939    0              0.98358761     1.2422745    
    121500   0.87324906     0.041166492    0              0.91223243     1.1119567    
    122000   0.90496224     0.042461444    0              0.94516128     1.0522737    
    122500   0.87487976     0.028305209    0              0.90099777     0.95928967   
    123000   0.88359306     0.048499882    0              0.92988396     1.1879447    
    123500   0.9039061      0.049951589    0              0.95159792     1.1896302    
    124000   0.94539508     0.044640423    0              0.98767202     1.2116458    
    124500   0.8952768      0.03694626     0              0.92998487     1.0028811    
    125000   0.81857246     0.071808837    0              0.88833486     1.4032532    
    125500   0.8412422      0.050869982    0              0.89000908     1.1222421    
    126000   0.83035527     0.036569797    0              0.86484918     1.0481789    
    126500   0.82529547     0.05067733     0              0.87390956     1.2153907    
    127000   0.74766852     0.036311039    0              0.78211039     0.97034847   
    127500   0.72955082     0.052021397    0              0.77974834     1.0923254    
    128000   0.67710191     0.058519122    0              0.73392828     1.0966067    
    128500   0.71115273     0.030177688    0              0.73955253     0.85543844   
    129000   0.71115359     0.028988615    0              0.73836432     0.83588564   
    129500   0.71976328     0.040863078    0              0.75882695     1.0621272    
    130000   0.66974626     0.061946573    0              0.73001847     1.1051884    
    130500   0.67907714     0.034541627    0              0.71192107     0.86879173   
    131000   0.67208608     0.038185302    0              0.70859117     0.91977054   
    131500   0.59236436     0.039056815    0              0.62994026     0.85618451   
    132000   0.59662134     0.02444121     0              0.61957099     0.68389059   
    132500   0.58448222     0.027407929    0              0.61042894     0.75740834   
    133000   0.57341098     0.013048144    0              0.58502559     0.56931981   
    133500   0.56106295     0.019507908    0              0.5791682      0.63811786   
    134000   0.58188345     0.025595665    0              0.6060244      0.75684259   
    134500   0.5835605      0.040192082    0              0.62229368     0.93605408   
    135000   0.54172258     0.020303219    0              0.5606715      0.66104179   
    135500   0.52099324     0.025192107    0              0.54488287     0.70450099   
    136000   0.51365581     0.014844229    0              0.5272159      0.58998277   
    136500   0.45866834     0.013539154    0              0.47106083     0.48409423   
    137000   0.47204703     0.016013122    0              0.48688003     0.59716357   
    137500   0.43845527     0.018501161    0              0.4558603      0.59673775   
    138000   0.4732347      0.013025603    0              0.48507721     0.52344188   
    138500   0.46011027     0.013676654    0              0.47263665     0.53875183   
    139000   0.44006922     0.023676194    0              0.46264524     0.65654122   
    139500   0.4114436      0.016267028    0              0.42668202     0.52469024   
    140000   0.38754281     0.0090547937   0              0.39562874     0.40967445   
    140500   0.3551486      0.0099777257   0              0.36423846     0.39550306   
    141000   0.34926634     0.009579193    0              0.35797236     0.40766114   
    141500   0.36303212     0.0095720537   0              0.37169659     0.41106551   
    142000   0.35605146     0.021019962    0              0.37618129     0.57266878   
    142500   0.33413104     0.0052435276   0              0.33853924     0.31990188   
    143000   0.29024804     0.019701254    0              0.30922368     0.55472143   
    143500   0.29377684     0.006715598    0              0.299758       0.30620453   
    144000   0.27051678     0.011283707    0              0.2811242      0.3887703    
    144500   0.24146036     0.0093931749   0              0.25024988     0.35916967   
    145000   0.24820196     0.0054830771   0              0.25306453     0.27094011   
    145500   0.25183961     0.0076726537   0              0.25888266     0.30807833   
    146000   0.2059935      0.0099769944   0              0.21545551     0.37887939   
    146500   0.19910394     0.0067365932   0              0.20534277     0.26669482   
    147000   0.18505464     0.0053691975   0              0.1899612      0.25232508   
    147500   0.17476908     0.0043342028   0              0.17866636     0.23561988   
    148000   0.16715597     0.0029387697   0              0.16967685     0.19468484   
    148500   0.13437889     0.0040006017   0              0.13804355     0.19031953   
    149000   0.12835484     0.0034750234   0              0.13150898     0.17641422   
    149500   0.12925959     0.0028758853   0              0.13181232     0.16017267   
    150000   0.10141011     0.0012616943   0              0.10241827     0.10090075   
Loop time of 2.16142 on 1 procs for 100000 steps with 400 atoms

Performance: 39973798.156 tau/day, 46265.970 timesteps/s, 18.506 Matom-step/s
98.4% CPU use with 1 MPI tasks x 1 OpenMP threads

MPI task timing breakdown:
Section |  min time  |  avg time  |  max time  |%varavg| %total
---------------------------------------------------------------
Pair    | 0.44388    | 0.44388    | 0.44388    |   0.0 | 20.54
Neigh   | 0.89969    | 0.89969    | 0.89969    |   0.0 | 41.63
Comm    | 0.12761    | 0.12761    | 0.12761    |   0.0 |  5.90
Output  | 0.010462   | 0.010462   | 0.010462   |   0.0 |  0.48
Modify  | 0.51007    | 0.51007    | 0.51007    |   0.0 | 23.60
Other   |            | 0.1697     |            |       |  7.85

Nlocal:            400 ave         400 max         400 min
Histogram: 1 0 0 0 0 0 0 0 0 0
Nghost:             81 ave          81 max          81 min
Histogram: 1 0 0 0 0 0 0 0 0 0
Neighs:            386 ave         386 max         386 min
Histogram: 1 0 0 0 0 0 0 0 0 0

Total # of neighbors = 386
Ave neighs/atom = 0.965
Neighbor list builds = 24814
Dangerous builds = 0
Total wall time: 0:00:03
