
Host: cs326.hpc.nyu.edu

Timers On : Mon Nov 27 16:18:17 2023
Timers Off: Mon Nov 27 16:18:18 2023

Wall Time:        0.38 seconds

                                                       Time (seconds)
Module                                       User      System        Wall        Calls

--------------------------------------------------------------------------------------

**************************************************************************************
